 Entering Gaussian System, Link 0=/opt/gaussian/g16_legacy/g16
 Input=gaussian_00554_1_1.com
 Output=gaussian_00554_1_1.log
 Initial command:
 /opt/gaussian/g16_legacy/l1.exe "/scratch-local/jramos/2595633/Gau-16630.inp" -scrdir="/scratch-local/jramos/2595633/"
 Entering Link 1 = /opt/gaussian/g16_legacy/l1.exe PID=     16631.
  
 Copyright (c) 1988,1990,1992,1993,1995,1998,2003,2009,2016,
            Gaussian, Inc.  All Rights Reserved.
  
 This is part of the Gaussian(R) 16 program.  It is based on
 the Gaussian(R) 09 system (copyright 2009, Gaussian, Inc.),
 the Gaussian(R) 03 system (copyright 2003, Gaussian, Inc.),
 the Gaussian(R) 98 system (copyright 1998, Gaussian, Inc.),
 the Gaussian(R) 94 system (copyright 1995, Gaussian, Inc.),
 the Gaussian 92(TM) system (copyright 1992, Gaussian, Inc.),
 the Gaussian 90(TM) system (copyright 1990, Gaussian, Inc.),
 the Gaussian 88(TM) system (copyright 1988, Gaussian, Inc.),
 the Gaussian 86(TM) system (copyright 1986, Carnegie Mellon
 University), and the Gaussian 82(TM) system (copyright 1983,
 Carnegie Mellon University). Gaussian is a federally registered
 trademark of Gaussian, Inc.
  
 This software contains proprietary and confidential information,
 including trade secrets, belonging to Gaussian, Inc.
  
 This software is provided under written license and may be
 used, copied, transmitted, or stored only in accord with that
 written license.
  
 The following legend is applicable only to US Government
 contracts under FAR:
  
                    RESTRICTED RIGHTS LEGEND
  
 Use, reproduction and disclosure by the US Government is
 subject to restrictions as set forth in subparagraphs (a)
 and (c) of the Commercial Computer Software - Restricted
 Rights clause in FAR 52.227-19.
  
 Gaussian, Inc.
 340 Quinnipiac St., Bldg. 40, Wallingford CT 06492
  
  
 ---------------------------------------------------------------
 Warning -- This program may not be used in any manner that
 competes with the business of Gaussian, Inc. or will provide
 assistance to any competitor of Gaussian, Inc.  The licensee
 of this program is prohibited from giving any competitor of
 Gaussian, Inc. access to this program.  By using this program,
 the user acknowledges that Gaussian, Inc. is engaged in the
 business of creating and licensing software in the field of
 computational chemistry and represents and warrants to the
 licensee that it is not a competitor of Gaussian, Inc. and that
 it will not use this program in any manner prohibited above.
 ---------------------------------------------------------------
  

 Cite this work as:
 Gaussian 16, Revision A.03,
 M. J. Frisch, G. W. Trucks, H. B. Schlegel, G. E. Scuseria, 
 M. A. Robb, J. R. Cheeseman, G. Scalmani, V. Barone, 
 G. A. Petersson, H. Nakatsuji, X. Li, M. Caricato, A. V. Marenich, 
 J. Bloino, B. G. Janesko, R. Gomperts, B. Mennucci, H. P. Hratchian, 
 J. V. Ortiz, A. F. Izmaylov, J. L. Sonnenberg, D. Williams-Young, 
 F. Ding, F. Lipparini, F. Egidi, J. Goings, B. Peng, A. Petrone, 
 T. Henderson, D. Ranasinghe, V. G. Zakrzewski, J. Gao, N. Rega, 
 G. Zheng, W. Liang, M. Hada, M. Ehara, K. Toyota, R. Fukuda, 
 J. Hasegawa, M. Ishida, T. Nakajima, Y. Honda, O. Kitao, H. Nakai, 
 T. Vreven, K. Throssell, J. A. Montgomery, Jr., J. E. Peralta, 
 F. Ogliaro, M. J. Bearpark, J. J. Heyd, E. N. Brothers, K. N. Kudin, 
 V. N. Staroverov, T. A. Keith, R. Kobayashi, J. Normand, 
 K. Raghavachari, A. P. Rendell, J. C. Burant, S. S. Iyengar, 
 J. Tomasi, M. Cossi, J. M. Millam, M. Klene, C. Adamo, R. Cammi, 
 J. W. Ochterski, R. L. Martin, K. Morokuma, O. Farkas, 
 J. B. Foresman, and D. J. Fox, Gaussian, Inc., Wallingford CT, 2016.
 
 ******************************************
 Gaussian 16:  EM64L-G16RevA.03 25-Dec-2016
                 6-May-2021 
 ******************************************
 %chk=gaussian_00554_1_1.chk
 %nproc=2
 Will use up to    2 processors via shared memory.
 %mem=4000Mb
 -------------
 #p 6-31g* mp2
 -------------
 1/38=1,172=1/1;
 2/12=2,17=6,18=5,40=1/2;
 3/5=1,6=6,7=1,11=9,25=1,30=1/1,2,3;
 4//1;
 5/5=2,38=5/2;
 8/10=2/1;
 9/16=-3/6;
 6/7=2,8=2,9=2,10=2/1;
 99/5=1,9=1/99;
 Leave Link    1 at Thu May  6 08:25:20 2021, MaxMem=   524288000 cpu:               0.1 elap:               0.1
 (Enter /opt/gaussian/g16_legacy/l101.exe)
 ------------------------------------------------------
 Input file generated by CHIRIPA (05-May-2021 14:51:08)
 ------------------------------------------------------
 Symbolic Z-matrix:
 Charge =  0 Multiplicity = 1
 C                    -0.666    -0.374     0. 
 C                    -1.882     0.553     0. 
 C                    -3.207    -0.21      0. 
 H                    -0.713    -1.03     -0.88 
 H                    -0.713    -1.029     0.881 
 H                    -1.832     1.207    -0.88 
 H                    -1.832     1.207     0.88 
 H                    -3.283    -0.85      0.885 
 H                    -3.283    -0.85     -0.885 
 H                    -4.063     0.472     0. 
 C                     0.666     0.374     0. 
 C                     1.882    -0.553     0. 
 C                     3.207     0.21      0. 
 H                     0.713     1.029    -0.881 
 H                     0.713     1.03      0.88 
 H                     1.832    -1.207    -0.88 
 H                     1.832    -1.207     0.88 
 H                     3.283     0.85      0.885 
 H                     3.283     0.85     -0.885 
 H                     4.063    -0.472     0. 
 C                     3.4582   -4.85581   2.61098 
 C                     2.71588  -4.26985   3.81248 
 C                     1.46124  -3.49361   3.41109 
 H                     3.73223  -4.04253   1.9251 
 H                     2.77862  -5.5172    2.05588 
 H                     3.39707  -3.61085   4.36593 
 H                     2.44376  -5.0846    4.49568 
 H                     0.76001  -4.14382   2.87808 
 H                     1.71874  -2.6617    2.7476 
 H                     0.9461   -3.08342   4.28529 
 C                     4.71468  -5.63467   2.99614 
 C                     5.45699  -6.22063   1.79463 
 C                     6.71163  -6.99687   2.19603 
 H                     5.39426  -4.97328   3.55123 
 H                     4.44065  -6.44795   3.68202 
 H                     5.72912  -5.40588   1.11144 
 H                     4.7758   -6.87963   1.24118 
 H                     6.45413  -7.82878   2.85951 
 H                     7.41287  -6.34666   2.72903 
 H                     7.22678  -7.40706   1.32183 
 
 ITRead=  0  0  0  0  0  0  0  0  0  0  0  0  0  0  0  0  0  0  0  0
 ITRead=  0  0  0  0  0  0  0  0  0  0  0  0  0  0  0  0  0  0  0  0
 MicOpt= -1 -1 -1 -1 -1 -1 -1 -1 -1 -1 -1 -1 -1 -1 -1 -1 -1 -1 -1 -1
 MicOpt= -1 -1 -1 -1 -1 -1 -1 -1 -1 -1 -1 -1 -1 -1 -1 -1 -1 -1 -1 -1
 NAtoms=     40 NQM=       40 NQMF=       0 NMMI=      0 NMMIF=      0
                NMic=       0 NMicF=      0.
                    Isotopes and Nuclear Properties:
 (Nuclear quadrupole moments (NQMom) in fm**2, nuclear magnetic moments (NMagM)
  in nuclear magnetons)

  Atom         1           2           3           4           5           6           7           8           9          10
 IAtWgt=          12          12          12           1           1           1           1           1           1           1
 AtmWgt=  12.0000000  12.0000000  12.0000000   1.0078250   1.0078250   1.0078250   1.0078250   1.0078250   1.0078250   1.0078250
 NucSpn=           0           0           0           1           1           1           1           1           1           1
 AtZEff=  -0.0000000  -0.0000000  -0.0000000  -0.0000000  -0.0000000  -0.0000000  -0.0000000  -0.0000000  -0.0000000  -0.0000000
 NQMom=    0.0000000   0.0000000   0.0000000   0.0000000   0.0000000   0.0000000   0.0000000   0.0000000   0.0000000   0.0000000
 NMagM=    0.0000000   0.0000000   0.0000000   2.7928460   2.7928460   2.7928460   2.7928460   2.7928460   2.7928460   2.7928460
 AtZNuc=   6.0000000   6.0000000   6.0000000   1.0000000   1.0000000   1.0000000   1.0000000   1.0000000   1.0000000   1.0000000

  Atom        11          12          13          14          15          16          17          18          19          20
 IAtWgt=          12          12          12           1           1           1           1           1           1           1
 AtmWgt=  12.0000000  12.0000000  12.0000000   1.0078250   1.0078250   1.0078250   1.0078250   1.0078250   1.0078250   1.0078250
 NucSpn=           0           0           0           1           1           1           1           1           1           1
 AtZEff=  -0.0000000  -0.0000000  -0.0000000  -0.0000000  -0.0000000  -0.0000000  -0.0000000  -0.0000000  -0.0000000  -0.0000000
 NQMom=    0.0000000   0.0000000   0.0000000   0.0000000   0.0000000   0.0000000   0.0000000   0.0000000   0.0000000   0.0000000
 NMagM=    0.0000000   0.0000000   0.0000000   2.7928460   2.7928460   2.7928460   2.7928460   2.7928460   2.7928460   2.7928460
 AtZNuc=   6.0000000   6.0000000   6.0000000   1.0000000   1.0000000   1.0000000   1.0000000   1.0000000   1.0000000   1.0000000

  Atom        21          22          23          24          25          26          27          28          29          30
 IAtWgt=          12          12          12           1           1           1           1           1           1           1
 AtmWgt=  12.0000000  12.0000000  12.0000000   1.0078250   1.0078250   1.0078250   1.0078250   1.0078250   1.0078250   1.0078250
 NucSpn=           0           0           0           1           1           1           1           1           1           1
 AtZEff=  -0.0000000  -0.0000000  -0.0000000  -0.0000000  -0.0000000  -0.0000000  -0.0000000  -0.0000000  -0.0000000  -0.0000000
 NQMom=    0.0000000   0.0000000   0.0000000   0.0000000   0.0000000   0.0000000   0.0000000   0.0000000   0.0000000   0.0000000
 NMagM=    0.0000000   0.0000000   0.0000000   2.7928460   2.7928460   2.7928460   2.7928460   2.7928460   2.7928460   2.7928460
 AtZNuc=   6.0000000   6.0000000   6.0000000   1.0000000   1.0000000   1.0000000   1.0000000   1.0000000   1.0000000   1.0000000

  Atom        31          32          33          34          35          36          37          38          39          40
 IAtWgt=          12          12          12           1           1           1           1           1           1           1
 AtmWgt=  12.0000000  12.0000000  12.0000000   1.0078250   1.0078250   1.0078250   1.0078250   1.0078250   1.0078250   1.0078250
 NucSpn=           0           0           0           1           1           1           1           1           1           1
 AtZEff=  -0.0000000  -0.0000000  -0.0000000  -0.0000000  -0.0000000  -0.0000000  -0.0000000  -0.0000000  -0.0000000  -0.0000000
 NQMom=    0.0000000   0.0000000   0.0000000   0.0000000   0.0000000   0.0000000   0.0000000   0.0000000   0.0000000   0.0000000
 NMagM=    0.0000000   0.0000000   0.0000000   2.7928460   2.7928460   2.7928460   2.7928460   2.7928460   2.7928460   2.7928460
 AtZNuc=   6.0000000   6.0000000   6.0000000   1.0000000   1.0000000   1.0000000   1.0000000   1.0000000   1.0000000   1.0000000
 Leave Link  101 at Thu May  6 08:25:20 2021, MaxMem=   524288000 cpu:               0.4 elap:               0.2
 (Enter /opt/gaussian/g16_legacy/l202.exe)
                          Input orientation:                          
 ---------------------------------------------------------------------
 Center     Atomic      Atomic             Coordinates (Angstroms)
 Number     Number       Type             X           Y           Z
 ---------------------------------------------------------------------
      1          6           0       -0.666000   -0.374000    0.000000
      2          6           0       -1.882000    0.553000    0.000000
      3          6           0       -3.207000   -0.210000    0.000000
      4          1           0       -0.713000   -1.030000   -0.880000
      5          1           0       -0.713000   -1.029000    0.881000
      6          1           0       -1.832000    1.207000   -0.880000
      7          1           0       -1.832000    1.207000    0.880000
      8          1           0       -3.283000   -0.850000    0.885000
      9          1           0       -3.283000   -0.850000   -0.885000
     10          1           0       -4.063000    0.472000    0.000000
     11          6           0        0.666000    0.374000    0.000000
     12          6           0        1.882000   -0.553000    0.000000
     13          6           0        3.207000    0.210000    0.000000
     14          1           0        0.713000    1.029000   -0.881000
     15          1           0        0.713000    1.030000    0.880000
     16          1           0        1.832000   -1.207000   -0.880000
     17          1           0        1.832000   -1.207000    0.880000
     18          1           0        3.283000    0.850000    0.885000
     19          1           0        3.283000    0.850000   -0.885000
     20          1           0        4.063000   -0.472000    0.000000
     21          6           0        3.458196   -4.855806    2.610979
     22          6           0        2.715882   -4.269852    3.812484
     23          6           0        1.461243   -3.493609    3.411088
     24          1           0        3.732226   -4.042527    1.925100
     25          1           0        2.778617   -5.517196    2.055884
     26          1           0        3.397074   -3.610845    4.365930
     27          1           0        2.443756   -5.084599    4.495676
     28          1           0        0.760007   -4.143822    2.878084
     29          1           0        1.718742   -2.661695    2.747602
     30          1           0        0.946095   -3.083416    4.285287
     31          6           0        4.714679   -5.634671    2.996136
     32          6           0        5.456993   -6.220625    1.794631
     33          6           0        6.711633   -6.996868    2.196027
     34          1           0        5.394258   -4.973281    3.551231
     35          1           0        4.440650   -6.447950    3.682015
     36          1           0        5.729119   -5.405878    1.111439
     37          1           0        4.775801   -6.879632    1.241184
     38          1           0        6.454134   -7.828782    2.859513
     39          1           0        7.412868   -6.346655    2.729030
     40          1           0        7.226781   -7.407061    1.321827
 ---------------------------------------------------------------------
                    Distance matrix (angstroms):
                    1          2          3          4          5
     1  C    0.000000
     2  C    1.529047   0.000000
     3  C    2.546287   1.528985   0.000000
     4  H    1.098610   2.155655   2.768905   0.000000
     5  H    1.098815   2.155330   2.768927   1.761000   0.000000
     6  H    2.152561   1.097550   2.161692   2.501266   3.058264
     7  H    2.152561   1.097550   2.161692   3.058420   2.500372
     8  H    2.803300   2.171275   1.094806   3.122903   2.576229
     9  H    2.803300   2.171275   1.094806   2.576301   3.123411
    10  H    3.500761   2.182504   1.094468   3.775302   3.775137
    11  C    1.527654   2.554280   3.916782   2.155750   2.155507
    12  C    2.554280   3.923128   5.100546   2.781358   2.781504
    13  C    3.916782   5.100546   6.427736   4.204569   4.204484
    14  H    2.155507   2.781504   4.204484   2.504587   3.061615
    15  H    2.155750   2.781358   4.204569   3.061809   2.504587
    16  H    2.776381   4.203070   5.211519   2.551148   3.099973
    17  H    2.776381   4.203070   5.211519   3.099347   2.551217
    18  H    4.228002   5.248682   6.635279   4.755801   4.415730
    19  H    4.228002   5.248682   6.635279   4.416157   4.755777
    20  H    4.730015   6.032715   7.274720   4.888347   4.888413
    21  C    6.626673   8.036796   8.533789   6.650008   5.919134
    22  C    6.414813   7.676943   8.130065   6.653817   5.554633
    23  C    5.088482   6.260019   6.649068   5.404640   4.147647
    24  H    6.042226   7.506291   8.157642   6.058378   5.470971
    25  H    6.522615   7.924348   8.259576   6.398885   5.806517
    26  H    6.785800   8.016706   8.616315   7.146555   5.975230
    27  H    7.216053   8.408674   8.712282   7.436583   6.283222
    28  H    4.952618   6.109313   6.284542   5.097924   3.982488
    29  H    4.297657   5.554181   6.150045   4.662113   3.473221
    30  H    5.320101   6.291687   6.623323   5.800802   4.308409
    31  C    8.099580   9.527868  10.057678   8.104759   7.426015
    32  C    8.654176  10.147094  10.696405   8.495002   8.115202
    33  C   10.154525  11.647900  12.217340  10.009527   9.616128
    34  H    8.395913   9.802803  10.453790   8.513746   7.745069
    35  H    8.748027  10.126522  10.533556   8.759353   7.985663
    36  H    8.212956   9.729987  10.396474   8.038348   7.791730
    37  H    8.571872  10.055390  10.476146   8.297262   8.030353
    38  H   10.697986  12.162328  12.631713  10.562916  10.075682
    39  H   10.410971  11.893167  12.565339  10.359616   9.885464
    40  H   10.653974  12.168800  12.743967  10.418977  10.193827
                    6          7          8          9         10
     6  H    0.000000
     7  H    1.760000   0.000000
     8  H    3.074390   2.517275   0.000000
     9  H    2.517275   3.074390   1.770000   0.000000
    10  H    2.508383   2.508383   1.771810   1.771810   0.000000
    11  C    2.776381   2.776381   4.228002   4.228002   4.730015
    12  C    4.203070   4.203070   5.248682   5.248682   6.032715
    13  C    5.211519   5.211519   6.635279   6.635279   7.274720
    14  H    2.551217   3.099973   4.755777   4.415730   4.888413
    15  H    3.099347   2.551148   4.416157   4.755801   4.888347
    16  H    4.387743   4.727567   5.422721   5.127446   6.192291
    17  H    4.727567   4.387743   5.127446   5.422721   6.192291
    18  H    5.422721   5.127446   6.782504   7.009654   7.408767
    19  H    5.127446   5.422721   7.009654   6.782504   7.408767
    20  H    6.192291   6.192291   7.408767   7.408767   8.180649
    21  C    8.771016   8.230436   8.029272   8.585574   9.579724
    22  C    8.526344   7.699260   7.500142   8.351546   9.108976
    23  C    7.166213   6.272765   5.989794   6.924802   7.607814
    24  H    8.147805   7.720776   7.777367   8.203797   9.211542
    25  H    8.665565   8.237433   7.739308   8.196018   9.322277
    26  H    8.835985   7.918747   8.022626   8.934088   9.559481
    27  H    9.314730   8.422554   7.985270   8.926323   9.665649
    28  H    7.033704   6.272331   5.582791   6.430861   7.269840
    29  H    6.382325   5.573375   5.636395   6.441697   7.127265
    30  H    7.266751   6.141780   5.868164   7.043100   7.489706
    31  C   10.231906   9.702860   9.555775  10.095502  11.104770
    32  C   10.744891  10.446798  10.298472  10.602430  11.774642
    33  C   12.237608  11.917594  11.806586  12.131340  13.292827
    34  H   10.490495   9.876748   9.970208  10.581890  11.476152
    35  H   10.897540  10.285703   9.940579  10.575890  11.565250
    36  H   10.240435  10.047599  10.100772  10.293691  11.474770
    37  H   10.656269  10.449263  10.071127  10.286953  11.563366
    38  H   12.817540  12.418689  12.141412  12.551357  13.699996
    39  H   12.471984  12.080737  12.166152  12.556911  13.624875
    40  H   12.692975  12.508348  12.395215  12.582553  13.830618
                   11         12         13         14         15
    11  C    0.000000
    12  C    1.529047   0.000000
    13  C    2.546287   1.528985   0.000000
    14  H    1.098815   2.155330   2.768927   0.000000
    15  H    1.098610   2.155655   2.768905   1.761000   0.000000
    16  H    2.152561   1.097550   2.161692   2.500372   3.058420
    17  H    2.152561   1.097550   2.161692   3.058264   2.501266
    18  H    2.803300   2.171275   1.094806   3.123411   2.576301
    19  H    2.803300   2.171275   1.094806   2.576229   3.122903
    20  H    3.500761   2.182504   1.094468   3.775137   3.775302
    21  C    6.477997   5.274063   5.704621   7.372989   6.721243
    22  C    6.348418   5.389377   5.902991   7.356505   6.379610
    23  C    5.217886   4.523244   5.329156   6.279799   5.237300
    24  H    5.710820   4.393876   4.697431   6.535312   5.994872
    25  H    6.587564   5.447368   6.100077   7.466240   6.965289
    26  H    6.511459   5.541409   5.804854   7.500846   6.394795
    27  H    7.291627   6.407969   6.987591   8.323476   7.311426
    28  H    5.357511   4.736691   5.764279   6.394608   5.546439
    29  H    4.227650   3.467357   4.243920   5.272523   4.257707
    30  H    5.513244   5.063853   5.858495   6.607331   5.345138
    31  C    7.840457   6.544026   6.738702   8.686203   8.056631
    32  C    8.346460   6.937092   7.045290   9.067609   8.712840
    33  C    9.782735   8.346935   8.309268  10.481710  10.106737
    34  H    7.972520   6.669789   6.652950   8.808304   8.067778
    35  H    8.622309   7.406373   7.707621   9.519520   8.812854
    36  H    7.763856   6.291744   6.255755   8.398745   8.163059
    37  H    8.428890   7.066887   7.366448   9.140923   8.899387
    38  H   10.438627   9.056392   9.129223  11.198766  10.740443
    39  H    9.906313   8.461947   8.253887  10.598152  10.135195
    40  H   10.263332   8.791590   8.713523  10.883424  10.668109
                   16         17         18         19         20
    16  H    0.000000
    17  H    1.760000   0.000000
    18  H    3.074390   2.517275   0.000000
    19  H    2.517275   3.074390   1.770000   0.000000
    20  H    2.508383   2.508383   1.771810   1.771810   0.000000
    21  C    5.305208   4.353687   5.963717   6.693936   5.138166
    22  C    5.672893   4.331486   5.924919   6.971432   5.547381
    23  C    4.876421   3.431100   5.344797   6.375116   5.247360
    24  H    4.418106   3.569777   5.021995   5.659972   4.069900
    25  H    5.300310   4.566900   6.493578   7.031670   5.597348
    26  H    5.978939   4.514381   5.659419   6.890894   5.418224
    27  H    6.656419   5.336959   6.997198   8.054531   6.641470
    28  H    4.888485   3.710314   5.939372   6.742741   5.716241
    29  H    3.910046   2.370000   4.271790   5.289112   4.223698
    30  H    5.566503   3.987699   5.700424   6.903967   5.907476
    31  C    6.552750   5.691409   6.968325   7.691806   6.004556
    32  C    6.740227   6.254083   7.453014   7.867681   6.181473
    33  C    8.172841   7.685396   8.663005   9.100637   7.376428
    34  H    6.819851   5.831812   6.743649   7.618934   5.886002
    35  H    7.421900   6.490293   7.900856   8.686648   7.029355
    36  H    6.064977   5.733383   6.720921   7.007516   5.324885
    37  H    6.733806   6.401185   7.880516   8.154528   6.565544
    38  H    8.899218   8.314481   9.448600   9.969891   8.247216
    39  H    8.401621   7.809037   8.499888   9.050352   7.292516
    40  H    8.508376   8.230409   9.160965   9.412893   7.736395
                   21         22         23         24         25
    21  C    0.000000
    22  C    1.529048   0.000000
    23  C    2.546287   1.528984   0.000000
    24  H    1.098611   2.155655   2.768905   0.000000
    25  H    1.098815   2.155330   2.768927   1.761001   0.000000
    26  H    2.152561   1.097550   2.161691   2.501265   3.058264
    27  H    2.152561   1.097550   2.161692   3.058420   2.500371
    28  H    2.803300   2.171275   1.094807   3.122903   2.576229
    29  H    2.803300   2.171274   1.094806   2.576301   3.123411
    30  H    3.500761   2.182503   1.094468   3.775302   3.775137
    31  C    1.527654   2.554280   3.916782   2.155749   2.155507
    32  C    2.554280   3.923128   5.100546   2.781358   2.781504
    33  C    3.916782   5.100547   6.427736   4.204569   4.204484
    34  H    2.155507   2.781504   4.204483   2.504587   3.061615
    35  H    2.155750   2.781359   4.204569   3.061809   2.504588
    36  H    2.776381   4.203070   5.211518   2.551147   3.099973
    37  H    2.776381   4.203070   5.211519   3.099347   2.551218
    38  H    4.228002   5.248682   6.635278   4.755800   4.415730
    39  H    4.228002   5.248682   6.635278   4.416156   4.755776
    40  H    4.730016   6.032716   7.274720   4.888348   4.888414
                   26         27         28         29         30
    26  H    0.000000
    27  H    1.760000   0.000000
    28  H    3.074390   2.517275   0.000000
    29  H    2.517274   3.074390   1.770000   0.000000
    30  H    2.508382   2.508383   1.771810   1.771809   0.000000
    31  C    2.776381   2.776381   4.228002   4.228001   4.730015
    32  C    4.203070   4.203070   5.248682   5.248681   6.032715
    33  C    5.211519   5.211519   6.635279   6.635278   7.274719
    34  H    2.551217   3.099973   4.755777   4.415730   4.888413
    35  H    3.099348   2.551148   4.416157   4.755800   4.888347
    36  H    4.387743   4.727567   5.422720   5.127445   6.192290
    37  H    4.727567   4.387744   5.127446   5.422720   6.192291
    38  H    5.422721   5.127446   6.782504   7.009654   7.408767
    39  H    5.127446   5.422720   7.009654   6.782503   7.408766
    40  H    6.192292   6.192292   7.408767   7.408767   8.180649
                   31         32         33         34         35
    31  C    0.000000
    32  C    1.529048   0.000000
    33  C    2.546288   1.528984   0.000000
    34  H    1.098815   2.155330   2.768927   0.000000
    35  H    1.098610   2.155655   2.768905   1.761000   0.000000
    36  H    2.152561   1.097550   2.161692   2.500371   3.058419
    37  H    2.152561   1.097550   2.161693   3.058264   2.501266
    38  H    2.803300   2.171274   1.094806   3.123411   2.576301
    39  H    2.803300   2.171274   1.094806   2.576229   3.122903
    40  H    3.500762   2.182504   1.094469   3.775138   3.775302
                   36         37         38         39         40
    36  H    0.000000
    37  H    1.760000   0.000000
    38  H    3.074390   2.517276   0.000000
    39  H    2.517275   3.074390   1.769999   0.000000
    40  H    2.508384   2.508383   1.771810   1.771810   0.000000
 Stoichiometry    C12H28
 Framework group  C1[X(C12H28)]
 Deg. of freedom   114
 Full point group                 C1      NOp   1
 Largest Abelian subgroup         C1      NOp   1
 Largest concise Abelian subgroup C1      NOp   1
                         Standard orientation:                         
 ---------------------------------------------------------------------
 Center     Atomic      Atomic             Coordinates (Angstroms)
 Number     Number       Type             X           Y           Z
 ---------------------------------------------------------------------
      1          6           0       -3.762711   -0.052758   -0.447615
      2          6           0       -5.215971   -0.458740   -0.200228
      3          6           0       -5.607668   -1.736095   -0.943687
      4          1           0       -3.606018    0.086284   -1.526068
      5          1           0       -3.102070   -0.874848   -0.139207
      6          1           0       -5.873605    0.364411   -0.507725
      7          1           0       -5.369272   -0.596645    0.877778
      8          1           0       -4.975761   -2.573399   -0.630291
      9          1           0       -5.482960   -1.606881   -2.023665
     10          1           0       -6.650476   -2.008021   -0.752719
     11          6           0       -3.356152    1.222383    0.288899
     12          6           0       -1.902893    1.628365    0.041511
     13          6           0       -1.511196    2.905720    0.784970
     14          1           0       -4.016794    2.044473   -0.019510
     15          1           0       -3.512846    1.083341    1.367351
     16          1           0       -1.749592    1.766271   -1.036495
     17          1           0       -1.245258    0.805214    0.349008
     18          1           0       -1.635903    2.776507    1.864949
     19          1           0       -2.143103    3.743024    0.471574
     20          1           0       -0.468388    3.177646    0.594002
     21          6           0        2.813586   -0.731550    0.004436
     22          6           0        2.257245   -1.626024    1.112762
     23          6           0        0.763921   -1.910588    0.949063
     24          1           0        2.257457    0.215831   -0.007247
     25          1           0        2.635148   -1.210753   -0.968148
     26          1           0        2.437913   -1.145925    2.083061
     27          1           0        2.814891   -2.571310    1.121933
     28          1           0        0.569516   -2.411596   -0.004771
     29          1           0        0.190398   -0.978113    0.961819
     30          1           0        0.387017   -2.551709    1.752037
     31          6           0        4.305278   -0.438076    0.154281
     32          6           0        4.861618    0.456399   -0.954045
     33          6           0        6.354943    0.740963   -0.790346
     34          1           0        4.483715    0.041128    1.126865
     35          1           0        4.861407   -1.385456    0.165964
     36          1           0        4.303973    1.401684   -0.963216
     37          1           0        4.680950   -0.023700   -1.924344
     38          1           0        6.928466   -0.191511   -0.803102
     39          1           0        6.549347    1.241971    0.163487
     40          1           0        6.731847    1.382085   -1.593321
 ---------------------------------------------------------------------
 Rotational constants (GHZ):           1.0726021           0.1797530           0.1641379
 Leave Link  202 at Thu May  6 08:25:21 2021, MaxMem=   524288000 cpu:               0.1 elap:               0.1
 (Enter /opt/gaussian/g16_legacy/l301.exe)
 Standard basis: 6-31G(d) (6D, 7F)
 Ernie: Thresh=  0.10000D-02 Tol=  0.10000D-05 Strict=F.
 There are   236 symmetry adapted cartesian basis functions of A   symmetry.
 There are   236 symmetry adapted basis functions of A   symmetry.
   236 basis functions,   448 primitive gaussians,   236 cartesian basis functions
    50 alpha electrons       50 beta electrons
       nuclear repulsion energy       672.5758343137 Hartrees.
 IExCor=    0 DFT=F Ex=HF Corr=None ExCW=0 ScaHFX=  1.000000
 ScaDFX=  1.000000  1.000000  1.000000  1.000000 ScalE2=  1.000000  1.000000
 IRadAn=      5 IRanWt=     -1 IRanGd=            0 ICorTp=0 IEmpDi=  4
 NAtoms=   40 NActive=   40 NUniq=   40 SFac= 1.00D+00 NAtFMM=   60 NAOKFM=F Big=F
 Integral buffers will be    131072 words long.
 Raffenetti 1 integral format.
 Two-electron integral symmetry is turned on.
 Leave Link  301 at Thu May  6 08:25:21 2021, MaxMem=   524288000 cpu:               0.3 elap:               0.2
 (Enter /opt/gaussian/g16_legacy/l302.exe)
 NPDir=0 NMtPBC=     1 NCelOv=     1 NCel=       1 NClECP=     1 NCelD=      1
         NCelK=      1 NCelE2=     1 NClLst=     1 CellRange=     0.0.
 One-electron integrals computed using PRISM.
 One-electron integral symmetry used in STVInt
 NBasis=   236 RedAO= T EigKep=  3.19D-03  NBF=   236
 NBsUse=   236 1.00D-06 EigRej= -1.00D+00 NBFU=   236
 Leave Link  302 at Thu May  6 08:25:21 2021, MaxMem=   524288000 cpu:               0.8 elap:               0.6
 (Enter /opt/gaussian/g16_legacy/l303.exe)
 DipDrv:  MaxL=1.
 Leave Link  303 at Thu May  6 08:25:22 2021, MaxMem=   524288000 cpu:               0.2 elap:               0.1
 (Enter /opt/gaussian/g16_legacy/l401.exe)
 ExpMin= 1.61D-01 ExpMax= 3.05D+03 ExpMxC= 4.57D+02 IAcc=3 IRadAn=         5 AccDes= 0.00D+00
 Harris functional with IExCor=  205 and IRadAn=       5 diagonalized for initial guess.
 HarFok:  IExCor=  205 AccDes= 0.00D+00 IRadAn=         5 IDoV= 1 UseB2=F ITyADJ=14
 ICtDFT=  3500011 ScaDFX=  1.000000  1.000000  1.000000  1.000000
 FoFCou: FMM=F IPFlag=           0 FMFlag=      100000 FMFlg1=           0
         NFxFlg=           0 DoJE=T BraDBF=F KetDBF=T FulRan=T
         wScrn=  0.000000 ICntrl=       500 IOpCl=  0 I1Cent=   200000004 NGrid=           0
         NMat0=    1 NMatS0=      1 NMatT0=    0 NMatD0=    1 NMtDS0=    0 NMtDT0=    0
 Petite list used in FoFCou.
 Harris En= -472.099692937963    
 JPrj=0 DoOrth=F DoCkMO=F.
 Leave Link  401 at Thu May  6 08:25:31 2021, MaxMem=   524288000 cpu:              16.6 elap:               8.6
 (Enter /opt/gaussian/g16_legacy/l502.exe)
 Keep R1 ints in memory in canonical form, NReq=397720540.
 FoFCou: FMM=F IPFlag=           0 FMFlag=           0 FMFlg1=           0
         NFxFlg=           0 DoJE=F BraDBF=F KetDBF=F FulRan=T
         wScrn=  0.000000 ICntrl=       600 IOpCl=  0 I1Cent=           0 NGrid=           0
         NMat0=    1 NMatS0=  27966 NMatT0=    0 NMatD0=    1 NMtDS0=    0 NMtDT0=    0
 Symmetry not used in FoFCou.
 Two-electron integral symmetry not used.
 Closed shell SCF:
 Using DIIS extrapolation, IDIIS=  1040.
 NGot=   524288000 LenX=   133109463 LenY=   133053326
 Requested convergence on RMS density matrix=1.00D-08 within 128 cycles.
 Requested convergence on MAX density matrix=1.00D-06.
 Requested convergence on             energy=1.00D-06.
 No special actions if energy rises.

 Cycle   1  Pass 1  IDiag  1:
 E= -469.869624442186    
 DIIS: error= 5.68D-02 at cycle   1 NSaved=   1.
 NSaved= 1 IEnMin= 1 EnMin= -469.869624442186     IErMin= 1 ErrMin= 5.68D-02
 ErrMax= 5.68D-02  0.00D+00 EMaxC= 1.00D-01 BMatC= 1.07D+00 BMatP= 1.07D+00
 IDIUse=3 WtCom= 4.32D-01 WtEn= 5.68D-01
 Coeff-Com:  0.100D+01
 Coeff-En:   0.100D+01
 Coeff:      0.100D+01
 Gap=     0.619 Goal=   None    Shift=    0.000
 GapD=    0.619 DampG=2.000 DampE=0.500 DampFc=1.0000 IDamp=-1.
 RMSDP=4.73D-03 MaxDP=1.19D-01              OVMax= 1.34D-01

 Cycle   2  Pass 1  IDiag  1:
 E= -470.595936864113     Delta-E=       -0.726312421927 Rises=F Damp=F
 DIIS: error= 2.34D-02 at cycle   2 NSaved=   2.
 NSaved= 2 IEnMin= 2 EnMin= -470.595936864113     IErMin= 2 ErrMin= 2.34D-02
 ErrMax= 2.34D-02  0.00D+00 EMaxC= 1.00D-01 BMatC= 1.47D-01 BMatP= 1.07D+00
 IDIUse=3 WtCom= 7.66D-01 WtEn= 2.34D-01
 Coeff-Com:  0.219D+00 0.781D+00
 Coeff-En:   0.000D+00 0.100D+01
 Coeff:      0.168D+00 0.832D+00
 Gap=     0.679 Goal=   None    Shift=    0.000
 RMSDP=1.73D-03 MaxDP=3.38D-02 DE=-7.26D-01 OVMax= 4.77D-02

 Cycle   3  Pass 1  IDiag  1:
 E= -470.727267021541     Delta-E=       -0.131330157428 Rises=F Damp=F
 DIIS: error= 4.86D-03 at cycle   3 NSaved=   3.
 NSaved= 3 IEnMin= 3 EnMin= -470.727267021541     IErMin= 3 ErrMin= 4.86D-03
 ErrMax= 4.86D-03  0.00D+00 EMaxC= 1.00D-01 BMatC= 5.32D-03 BMatP= 1.47D-01
 IDIUse=3 WtCom= 9.51D-01 WtEn= 4.86D-02
 Coeff-Com: -0.264D-01 0.113D+00 0.913D+00
 Coeff-En:   0.000D+00 0.000D+00 0.100D+01
 Coeff:     -0.251D-01 0.107D+00 0.918D+00
 Gap=     0.648 Goal=   None    Shift=    0.000
 RMSDP=2.91D-04 MaxDP=6.84D-03 DE=-1.31D-01 OVMax= 9.87D-03

 Cycle   4  Pass 1  IDiag  1:
 E= -470.733260564528     Delta-E=       -0.005993542987 Rises=F Damp=F
 DIIS: error= 4.80D-04 at cycle   4 NSaved=   4.
 NSaved= 4 IEnMin= 4 EnMin= -470.733260564528     IErMin= 4 ErrMin= 4.80D-04
 ErrMax= 4.80D-04  0.00D+00 EMaxC= 1.00D-01 BMatC= 6.40D-05 BMatP= 5.32D-03
 IDIUse=3 WtCom= 9.95D-01 WtEn= 4.80D-03
 Coeff-Com:  0.157D-02-0.246D-01-0.976D-01 0.112D+01
 Coeff-En:   0.000D+00 0.000D+00 0.000D+00 0.100D+01
 Coeff:      0.157D-02-0.245D-01-0.971D-01 0.112D+01
 Gap=     0.649 Goal=   None    Shift=    0.000
 RMSDP=6.13D-05 MaxDP=1.22D-03 DE=-5.99D-03 OVMax= 1.82D-03

 Cycle   5  Pass 1  IDiag  1:
 E= -470.733367804352     Delta-E=       -0.000107239824 Rises=F Damp=F
 DIIS: error= 1.17D-04 at cycle   5 NSaved=   5.
 NSaved= 5 IEnMin= 5 EnMin= -470.733367804352     IErMin= 5 ErrMin= 1.17D-04
 ErrMax= 1.17D-04  0.00D+00 EMaxC= 1.00D-01 BMatC= 6.26D-06 BMatP= 6.40D-05
 IDIUse=3 WtCom= 9.99D-01 WtEn= 1.17D-03
 Coeff-Com:  0.218D-02-0.130D-01-0.820D-01 0.191D+00 0.902D+00
 Coeff-En:   0.000D+00 0.000D+00 0.000D+00 0.000D+00 0.100D+01
 Coeff:      0.218D-02-0.129D-01-0.819D-01 0.191D+00 0.902D+00
 Gap=     0.649 Goal=   None    Shift=    0.000
 RMSDP=1.56D-05 MaxDP=3.67D-04 DE=-1.07D-04 OVMax= 4.76D-04

 Cycle   6  Pass 1  IDiag  1:
 E= -470.733376560714     Delta-E=       -0.000008756362 Rises=F Damp=F
 DIIS: error= 2.38D-05 at cycle   6 NSaved=   6.
 NSaved= 6 IEnMin= 6 EnMin= -470.733376560714     IErMin= 6 ErrMin= 2.38D-05
 ErrMax= 2.38D-05  0.00D+00 EMaxC= 1.00D-01 BMatC= 1.41D-07 BMatP= 6.26D-06
 IDIUse=1 WtCom= 1.00D+00 WtEn= 0.00D+00
 Coeff-Com:  0.122D-03-0.201D-03-0.263D-02-0.334D-01 0.616D-01 0.974D+00
 Coeff:      0.122D-03-0.201D-03-0.263D-02-0.334D-01 0.616D-01 0.974D+00
 Gap=     0.649 Goal=   None    Shift=    0.000
 RMSDP=3.38D-06 MaxDP=7.41D-05 DE=-8.76D-06 OVMax= 1.01D-04

 Cycle   7  Pass 1  IDiag  1:
 E= -470.733376801735     Delta-E=       -0.000000241021 Rises=F Damp=F
 DIIS: error= 3.72D-06 at cycle   7 NSaved=   7.
 NSaved= 7 IEnMin= 7 EnMin= -470.733376801735     IErMin= 7 ErrMin= 3.72D-06
 ErrMax= 3.72D-06  0.00D+00 EMaxC= 1.00D-01 BMatC= 5.32D-09 BMatP= 1.41D-07
 IDIUse=1 WtCom= 1.00D+00 WtEn= 0.00D+00
 Coeff-Com: -0.573D-04 0.372D-03 0.244D-02-0.669D-02-0.256D-01 0.521D-02
 Coeff-Com:  0.102D+01
 Coeff:     -0.573D-04 0.372D-03 0.244D-02-0.669D-02-0.256D-01 0.521D-02
 Coeff:      0.102D+01
 Gap=     0.649 Goal=   None    Shift=    0.000
 RMSDP=7.46D-07 MaxDP=1.61D-05 DE=-2.41D-07 OVMax= 2.23D-05

 Cycle   8  Pass 1  IDiag  1:
 E= -470.733376811560     Delta-E=       -0.000000009826 Rises=F Damp=F
 DIIS: error= 1.53D-06 at cycle   8 NSaved=   8.
 NSaved= 8 IEnMin= 8 EnMin= -470.733376811560     IErMin= 8 ErrMin= 1.53D-06
 ErrMax= 1.53D-06  0.00D+00 EMaxC= 1.00D-01 BMatC= 6.21D-10 BMatP= 5.32D-09
 IDIUse=1 WtCom= 1.00D+00 WtEn= 0.00D+00
 Coeff-Com: -0.153D-04 0.614D-04 0.504D-03 0.146D-02-0.725D-02-0.691D-01
 Coeff-Com:  0.144D+00 0.931D+00
 Coeff:     -0.153D-04 0.614D-04 0.504D-03 0.146D-02-0.725D-02-0.691D-01
 Coeff:      0.144D+00 0.931D+00
 Gap=     0.649 Goal=   None    Shift=    0.000
 RMSDP=2.05D-07 MaxDP=4.49D-06 DE=-9.83D-09 OVMax= 7.60D-06

 Cycle   9  Pass 1  IDiag  1:
 E= -470.733376812613     Delta-E=       -0.000000001052 Rises=F Damp=F
 DIIS: error= 3.63D-07 at cycle   9 NSaved=   9.
 NSaved= 9 IEnMin= 9 EnMin= -470.733376812613     IErMin= 9 ErrMin= 3.63D-07
 ErrMax= 3.63D-07  0.00D+00 EMaxC= 1.00D-01 BMatC= 4.16D-11 BMatP= 6.21D-10
 IDIUse=1 WtCom= 1.00D+00 WtEn= 0.00D+00
 Coeff-Com:  0.564D-05-0.356D-04-0.239D-03 0.470D-03 0.284D-02 0.416D-02
 Coeff-Com: -0.974D-01-0.638D-01 0.115D+01
 Coeff:      0.564D-05-0.356D-04-0.239D-03 0.470D-03 0.284D-02 0.416D-02
 Coeff:     -0.974D-01-0.638D-01 0.115D+01
 Gap=     0.649 Goal=   None    Shift=    0.000
 RMSDP=7.60D-08 MaxDP=1.67D-06 DE=-1.05D-09 OVMax= 2.34D-06

 Cycle  10  Pass 1  IDiag  1:
 E= -470.733376812705     Delta-E=       -0.000000000092 Rises=F Damp=F
 DIIS: error= 6.46D-08 at cycle  10 NSaved=  10.
 NSaved=10 IEnMin=10 EnMin= -470.733376812705     IErMin=10 ErrMin= 6.46D-08
 ErrMax= 6.46D-08  0.00D+00 EMaxC= 1.00D-01 BMatC= 1.52D-12 BMatP= 4.16D-11
 IDIUse=1 WtCom= 1.00D+00 WtEn= 0.00D+00
 Coeff-Com:  0.211D-06 0.273D-06-0.421D-05-0.140D-03 0.137D-03 0.371D-02
 Coeff-Com:  0.153D-02-0.502D-01-0.107D+00 0.115D+01
 Coeff:      0.211D-06 0.273D-06-0.421D-05-0.140D-03 0.137D-03 0.371D-02
 Coeff:      0.153D-02-0.502D-01-0.107D+00 0.115D+01
 Gap=     0.649 Goal=   None    Shift=    0.000
 RMSDP=1.43D-08 MaxDP=3.57D-07 DE=-9.23D-11 OVMax= 4.95D-07

 Cycle  11  Pass 1  IDiag  1:
 E= -470.733376812707     Delta-E=       -0.000000000002 Rises=F Damp=F
 DIIS: error= 7.86D-09 at cycle  11 NSaved=  11.
 NSaved=11 IEnMin=11 EnMin= -470.733376812707     IErMin=11 ErrMin= 7.86D-09
 ErrMax= 7.86D-09  0.00D+00 EMaxC= 1.00D-01 BMatC= 3.73D-14 BMatP= 1.52D-12
 IDIUse=1 WtCom= 1.00D+00 WtEn= 0.00D+00
 Coeff-Com: -0.173D-06 0.867D-06 0.653D-05 0.208D-04-0.104D-03-0.929D-03
 Coeff-Com:  0.199D-02 0.127D-01-0.711D-03-0.277D+00 0.126D+01
 Coeff:     -0.173D-06 0.867D-06 0.653D-05 0.208D-04-0.104D-03-0.929D-03
 Coeff:      0.199D-02 0.127D-01-0.711D-03-0.277D+00 0.126D+01
 Gap=     0.649 Goal=   None    Shift=    0.000
 RMSDP=2.01D-09 MaxDP=4.69D-08 DE=-2.05D-12 OVMax= 6.04D-08

 SCF Done:  E(RHF) =  -470.733376813     A.U. after   11 cycles
            NFock= 11  Conv=0.20D-08     -V/T= 2.0011
 KE= 4.702256461785D+02 PE=-2.438287727099D+03 EE= 8.247528697940D+02
 Leave Link  502 at Thu May  6 08:25:50 2021, MaxMem=   524288000 cpu:              28.8 elap:              19.7
 (Enter /opt/gaussian/g16_legacy/l801.exe)
 ExpMin= 1.61D-01 ExpMax= 3.05D+03 ExpMxC= 4.57D+02 IAcc=3 IRadAn=         5 AccDes= 0.00D+00
 HarFok:  IExCor=  205 AccDes= 0.00D+00 IRadAn=         5 IDoV=-2 UseB2=F ITyADJ=14
 ICtDFT= 12500011 ScaDFX=  1.000000  1.000000  1.000000  1.000000
 Largest valence mixing into a core orbital is  1.98D-04
 Largest core mixing into a valence orbital is  3.29D-05
 Range of M.O.s used for correlation:    13   236
 NBasis=   236 NAE=    50 NBE=    50 NFC=    12 NFV=     0
 NROrb=    224 NOA=    38 NOB=    38 NVA=   186 NVB=   186
 Leave Link  801 at Thu May  6 08:25:53 2021, MaxMem=   524288000 cpu:               2.5 elap:               2.1
 (Enter /opt/gaussian/g16_legacy/l906.exe)
 FulOut=F Deriv=F AODrv=F NAtomX=    40
   MMem=         154  MDisk=          38 MDiskD=          38
  W3Min=     1668048 MinDsk=     1838182 NBas6D=         236
 NBas2D=       28290    NTT=       27966    LW2=     2000000
    MDV=   523956244 MDiskM=       30717 NBas2p=       18491
 Fully direct method using O(OVN) memory.
 IMap=   1   2   3   4   5   6   7   8   9  10  11  12  13  14  15  16  17  18  19  20
 IMap=  21  22  23  24  25  26  27  28  29  30  31  32  33  34  35  36  37  38
 JobTyp=1 Pass  1:  I=   1 to  38 NPSUse=  2 ParTrn=T ParDer=T DoDerP=F.
 Spin components of T(2) and E(2):
     alpha-alpha T2 =       0.6276831030D-01 E2=     -0.1841825836D+00
     alpha-beta  T2 =       0.4042240856D+00 E2=     -0.1214327089D+01
     beta-beta   T2 =       0.6276831030D-01 E2=     -0.1841825836D+00
 The integrals were generated   1 times.
 ANorm=    0.1236834955D+01
 E2 =    -0.1582692256D+01 EUMP2 =    -0.47231606906847D+03
 Leave Link  906 at Thu May  6 08:26:27 2021, MaxMem=   524288000 cpu:              67.1 elap:              34.4
 (Enter /opt/gaussian/g16_legacy/l601.exe)
 Copying SCF densities to generalized density rwf, IOpCl= 0 IROHF=0.

 **********************************************************************

            Population analysis using the SCF density.

 **********************************************************************

 Orbital symmetries:
       Occupied  (A) (A) (A) (A) (A) (A) (A) (A) (A) (A) (A) (A)
                 (A) (A) (A) (A) (A) (A) (A) (A) (A) (A) (A) (A)
                 (A) (A) (A) (A) (A) (A) (A) (A) (A) (A) (A) (A)
                 (A) (A) (A) (A) (A) (A) (A) (A) (A) (A) (A) (A)
                 (A) (A)
       Virtual   (A) (A) (A) (A) (A) (A) (A) (A) (A) (A) (A) (A)
                 (A) (A) (A) (A) (A) (A) (A) (A) (A) (A) (A) (A)
                 (A) (A) (A) (A) (A) (A) (A) (A) (A) (A) (A) (A)
                 (A) (A) (A) (A) (A) (A) (A) (A) (A) (A) (A) (A)
                 (A) (A) (A) (A) (A) (A) (A) (A) (A) (A) (A) (A)
                 (A) (A) (A) (A) (A) (A) (A) (A) (A) (A) (A) (A)
                 (A) (A) (A) (A) (A) (A) (A) (A) (A) (A) (A) (A)
                 (A) (A) (A) (A) (A) (A) (A) (A) (A) (A) (A) (A)
                 (A) (A) (A) (A) (A) (A) (A) (A) (A) (A) (A) (A)
                 (A) (A) (A) (A) (A) (A) (A) (A) (A) (A) (A) (A)
                 (A) (A) (A) (A) (A) (A) (A) (A) (A) (A) (A) (A)
                 (A) (A) (A) (A) (A) (A) (A) (A) (A) (A) (A) (A)
                 (A) (A) (A) (A) (A) (A) (A) (A) (A) (A) (A) (A)
                 (A) (A) (A) (A) (A) (A) (A) (A) (A) (A) (A) (A)
                 (A) (A) (A) (A) (A) (A) (A) (A) (A) (A) (A) (A)
                 (A) (A) (A) (A) (A) (A)
 The electronic state is 1-A.
 Alpha  occ. eigenvalues --  -11.21627 -11.21606 -11.21595 -11.21574 -11.21413
 Alpha  occ. eigenvalues --  -11.21382 -11.21354 -11.21318 -11.21104 -11.21095
 Alpha  occ. eigenvalues --  -11.21074 -11.21044  -1.08444  -1.08411  -1.03554
 Alpha  occ. eigenvalues --   -1.03514  -0.95999  -0.95967  -0.87023  -0.86978
 Alpha  occ. eigenvalues --   -0.79651  -0.79547  -0.78277  -0.78198  -0.65118
 Alpha  occ. eigenvalues --   -0.65007  -0.61048  -0.60833  -0.59382  -0.59321
 Alpha  occ. eigenvalues --   -0.57619  -0.57568  -0.55318  -0.55230  -0.52694
 Alpha  occ. eigenvalues --   -0.52670  -0.52450  -0.52374  -0.50034  -0.49844
 Alpha  occ. eigenvalues --   -0.48050  -0.47815  -0.46795  -0.46475  -0.45897
 Alpha  occ. eigenvalues --   -0.45742  -0.45731  -0.45480  -0.43800  -0.43771
 Alpha virt. eigenvalues --    0.21130   0.23044   0.23709   0.24715   0.25603
 Alpha virt. eigenvalues --    0.26680   0.27096   0.27391   0.28277   0.29090
 Alpha virt. eigenvalues --    0.30402   0.31590   0.31768   0.31784   0.31938
 Alpha virt. eigenvalues --    0.32760   0.33544   0.33730   0.34259   0.34318
 Alpha virt. eigenvalues --    0.34726   0.34759   0.34939   0.36204   0.36412
 Alpha virt. eigenvalues --    0.36441   0.36566   0.39273   0.39556   0.40583
 Alpha virt. eigenvalues --    0.40743   0.44941   0.45336   0.45646   0.45750
 Alpha virt. eigenvalues --    0.47325   0.47878   0.49127   0.69050   0.69278
 Alpha virt. eigenvalues --    0.69521   0.69854   0.71629   0.71855   0.75011
 Alpha virt. eigenvalues --    0.75379   0.76354   0.76742   0.77999   0.78180
 Alpha virt. eigenvalues --    0.80342   0.81233   0.83956   0.84062   0.86749
 Alpha virt. eigenvalues --    0.87064   0.87877   0.88046   0.95943   0.95969
 Alpha virt. eigenvalues --    0.96255   0.96322   0.98473   0.98623   1.01432
 Alpha virt. eigenvalues --    1.01807   1.05445   1.05637   1.07491   1.07748
 Alpha virt. eigenvalues --    1.10869   1.10995   1.11612   1.12501   1.15664
 Alpha virt. eigenvalues --    1.16248   1.16723   1.16910   1.17403   1.18100
 Alpha virt. eigenvalues --    1.18707   1.18861   1.19947   1.20171   1.20518
 Alpha virt. eigenvalues --    1.20807   1.21006   1.21028   1.21362   1.21496
 Alpha virt. eigenvalues --    1.21707   1.21882   1.22048   1.23004   1.23272
 Alpha virt. eigenvalues --    1.23943   1.24622   1.26392   1.26705   1.27114
 Alpha virt. eigenvalues --    1.27216   1.39690   1.40187   1.50003   1.55399
 Alpha virt. eigenvalues --    1.59274   1.65966   1.66949   1.67298   1.67325
 Alpha virt. eigenvalues --    1.70927   1.72463   1.72726   1.73077   1.79416
 Alpha virt. eigenvalues --    1.80517   1.81191   1.81499   1.92698   1.92745
 Alpha virt. eigenvalues --    2.05227   2.05441   2.13111   2.13274   2.14633
 Alpha virt. eigenvalues --    2.15109   2.17816   2.17878   2.22422   2.22458
 Alpha virt. eigenvalues --    2.25484   2.25685   2.25733   2.25823   2.27609
 Alpha virt. eigenvalues --    2.27825   2.32659   2.32897   2.33919   2.33969
 Alpha virt. eigenvalues --    2.35957   2.36053   2.39515   2.39636   2.43071
 Alpha virt. eigenvalues --    2.43097   2.56731   2.56786   2.56800   2.56895
 Alpha virt. eigenvalues --    2.59588   2.59632   2.66801   2.66916   2.67695
 Alpha virt. eigenvalues --    2.67729   2.67785   2.67892   2.76969   2.76983
 Alpha virt. eigenvalues --    2.77563   2.77777   2.79969   2.80008   2.91374
 Alpha virt. eigenvalues --    2.91461   2.94871   2.95018   2.98541   2.98674
 Alpha virt. eigenvalues --    3.13650   3.13918   3.18579   3.18678   4.55150
 Alpha virt. eigenvalues --    4.56475   4.62031   4.64574   4.71785   4.72895
 Alpha virt. eigenvalues --    4.79766   4.80835   4.87811   4.89585   4.99607
 Alpha virt. eigenvalues --    5.01136
          Condensed to atoms (all electrons):
               1          2          3          4          5          6
     1  C    5.084913   0.351998  -0.057334   0.396089   0.396305  -0.043660
     2  C    0.351998   5.060656   0.340667  -0.041859  -0.041781   0.399089
     3  C   -0.057334   0.340667   5.097369  -0.002858  -0.002853  -0.039908
     4  H    0.396089  -0.041859  -0.002858   0.566821  -0.031384  -0.002967
     5  H    0.396305  -0.041781  -0.002853  -0.031384   0.564900   0.004557
     6  H   -0.043660   0.399089  -0.039908  -0.002967   0.004557   0.564569
     7  H   -0.043630   0.399116  -0.039877   0.004566  -0.002978  -0.031665
     8  H   -0.003781  -0.038878   0.391310   0.000159   0.002616   0.004219
     9  H   -0.003795  -0.038906   0.391260   0.002623   0.000158  -0.002891
    10  H    0.004399  -0.035847   0.394075  -0.000059  -0.000058  -0.002506
    11  C    0.355317  -0.051858   0.004074  -0.041680  -0.041640  -0.003205
    12  C   -0.051617   0.003965  -0.000085  -0.003271  -0.003141  -0.000064
    13  C    0.004072  -0.000085   0.000001  -0.000052  -0.000050  -0.000000
    14  H   -0.041718  -0.003266  -0.000052  -0.002800   0.004442   0.002413
    15  H   -0.041629  -0.003261  -0.000052   0.004463  -0.002773   0.000240
    16  H   -0.003196  -0.000064  -0.000000   0.002400   0.000250   0.000017
    17  H   -0.003266  -0.000053  -0.000001   0.000265   0.002062  -0.000005
    18  H   -0.000070  -0.000001  -0.000000  -0.000001   0.000014   0.000000
    19  H   -0.000070  -0.000001  -0.000000   0.000013  -0.000002  -0.000002
    20  H   -0.000087   0.000001  -0.000000   0.000001   0.000001   0.000000
    21  C   -0.000000   0.000000  -0.000000  -0.000000   0.000000  -0.000000
    22  C    0.000000  -0.000000  -0.000000  -0.000000  -0.000000   0.000000
    23  C   -0.000016   0.000000  -0.000000  -0.000000   0.000093  -0.000000
    24  H   -0.000000   0.000000   0.000000   0.000000   0.000000  -0.000000
    25  H   -0.000000   0.000000   0.000000  -0.000000   0.000000  -0.000000
    26  H   -0.000000   0.000000  -0.000000  -0.000000   0.000000  -0.000000
    27  H   -0.000000   0.000000   0.000000   0.000000   0.000000  -0.000000
    28  H   -0.000002  -0.000000  -0.000000  -0.000000   0.000031   0.000000
    29  H   -0.000013  -0.000000   0.000000  -0.000000   0.000151   0.000000
    30  H    0.000000  -0.000000   0.000000   0.000000   0.000003   0.000000
    31  C    0.000000  -0.000000   0.000000   0.000000  -0.000000   0.000000
    32  C   -0.000000  -0.000000   0.000000  -0.000000   0.000000   0.000000
    33  C    0.000000  -0.000000   0.000000   0.000000  -0.000000  -0.000000
    34  H   -0.000000   0.000000   0.000000   0.000000   0.000000  -0.000000
    35  H   -0.000000   0.000000  -0.000000  -0.000000  -0.000000   0.000000
    36  H    0.000000   0.000000  -0.000000  -0.000000  -0.000000   0.000000
    37  H    0.000000  -0.000000   0.000000  -0.000000  -0.000000   0.000000
    38  H    0.000000  -0.000000   0.000000  -0.000000  -0.000000   0.000000
    39  H    0.000000  -0.000000   0.000000  -0.000000  -0.000000   0.000000
    40  H   -0.000000   0.000000   0.000000  -0.000000   0.000000   0.000000
               7          8          9         10         11         12
     1  C   -0.043630  -0.003781  -0.003795   0.004399   0.355317  -0.051617
     2  C    0.399116  -0.038878  -0.038906  -0.035847  -0.051858   0.003965
     3  C   -0.039877   0.391310   0.391260   0.394075   0.004074  -0.000085
     4  H    0.004566   0.000159   0.002623  -0.000059  -0.041680  -0.003271
     5  H   -0.002978   0.002616   0.000158  -0.000058  -0.041640  -0.003141
     6  H   -0.031665   0.004219  -0.002891  -0.002506  -0.003205  -0.000064
     7  H    0.564334  -0.002890   0.004220  -0.002507  -0.003194  -0.000065
     8  H   -0.002890   0.548488  -0.029130  -0.027493  -0.000070  -0.000000
     9  H    0.004220  -0.029130   0.548954  -0.027514  -0.000070  -0.000001
    10  H   -0.002507  -0.027493  -0.027514   0.537488  -0.000087   0.000001
    11  C   -0.003194  -0.000070  -0.000070  -0.000087   5.083769   0.351503
    12  C   -0.000065  -0.000000  -0.000001   0.000001   0.351503   5.072696
    13  C   -0.000000  -0.000000  -0.000000  -0.000000  -0.057305   0.340254
    14  H    0.000238  -0.000001   0.000013   0.000001   0.396201  -0.041870
    15  H    0.002402   0.000013  -0.000001   0.000001   0.396054  -0.041714
    16  H   -0.000003   0.000000  -0.000002   0.000000  -0.043560   0.399330
    17  H    0.000018  -0.000002   0.000000   0.000000  -0.043621   0.397578
    18  H   -0.000002   0.000000  -0.000000  -0.000000  -0.003799  -0.038765
    19  H    0.000000  -0.000000   0.000000  -0.000000  -0.003785  -0.038792
    20  H    0.000000  -0.000000  -0.000000   0.000000   0.004411  -0.035883
    21  C   -0.000000  -0.000000  -0.000000  -0.000000   0.000000  -0.000008
    22  C   -0.000000   0.000000   0.000000  -0.000000  -0.000000   0.000011
    23  C   -0.000000  -0.000000  -0.000000   0.000000   0.000012  -0.000412
    24  H    0.000000  -0.000000   0.000000  -0.000000   0.000000   0.000017
    25  H   -0.000000  -0.000000  -0.000000   0.000000  -0.000000  -0.000000
    26  H   -0.000000  -0.000000  -0.000000   0.000000   0.000000  -0.000000
    27  H   -0.000000  -0.000000  -0.000000   0.000000   0.000000  -0.000000
    28  H   -0.000000   0.000000  -0.000000  -0.000000  -0.000001   0.000005
    29  H   -0.000000   0.000000  -0.000000  -0.000000   0.000022  -0.000305
    30  H    0.000000   0.000000   0.000000  -0.000000  -0.000001   0.000008
    31  C    0.000000   0.000000   0.000000  -0.000000  -0.000000   0.000000
    32  C   -0.000000  -0.000000  -0.000000  -0.000000  -0.000000  -0.000000
    33  C    0.000000   0.000000   0.000000   0.000000  -0.000000   0.000000
    34  H    0.000000  -0.000000   0.000000   0.000000   0.000000  -0.000000
    35  H   -0.000000   0.000000  -0.000000  -0.000000   0.000000  -0.000000
    36  H   -0.000000   0.000000  -0.000000  -0.000000   0.000000  -0.000000
    37  H    0.000000   0.000000   0.000000  -0.000000   0.000000  -0.000000
    38  H    0.000000   0.000000   0.000000   0.000000  -0.000000   0.000000
    39  H    0.000000   0.000000   0.000000   0.000000   0.000000   0.000000
    40  H   -0.000000  -0.000000   0.000000   0.000000   0.000000  -0.000000
              13         14         15         16         17         18
     1  C    0.004072  -0.041718  -0.041629  -0.003196  -0.003266  -0.000070
     2  C   -0.000085  -0.003266  -0.003261  -0.000064  -0.000053  -0.000001
     3  C    0.000001  -0.000052  -0.000052  -0.000000  -0.000001  -0.000000
     4  H   -0.000052  -0.002800   0.004463   0.002400   0.000265  -0.000001
     5  H   -0.000050   0.004442  -0.002773   0.000250   0.002062   0.000014
     6  H   -0.000000   0.002413   0.000240   0.000017  -0.000005   0.000000
     7  H   -0.000000   0.000238   0.002402  -0.000003   0.000018  -0.000002
     8  H   -0.000000  -0.000001   0.000013   0.000000  -0.000002   0.000000
     9  H   -0.000000   0.000013  -0.000001  -0.000002   0.000000  -0.000000
    10  H   -0.000000   0.000001   0.000001   0.000000   0.000000  -0.000000
    11  C   -0.057305   0.396201   0.396054  -0.043560  -0.043621  -0.003799
    12  C    0.340254  -0.041870  -0.041714   0.399330   0.397578  -0.038765
    13  C    5.097664  -0.002883  -0.002867  -0.039858  -0.040260   0.391196
    14  H   -0.002883   0.567035  -0.031495  -0.002979   0.004520   0.000160
    15  H   -0.002867  -0.031495   0.566864   0.004562  -0.003020   0.002632
    16  H   -0.039858  -0.002979   0.004562   0.563650  -0.031727   0.004220
    17  H   -0.040260   0.004520  -0.003020  -0.031727   0.556598  -0.002985
    18  H    0.391196   0.000160   0.002632   0.004220  -0.002985   0.549030
    19  H    0.391346   0.002623   0.000159  -0.002889   0.004236  -0.029099
    20  H    0.393960  -0.000059  -0.000059  -0.002507  -0.002542  -0.027573
    21  C   -0.000002  -0.000000  -0.000000  -0.000000   0.000011   0.000000
    22  C   -0.000000   0.000000  -0.000000  -0.000000  -0.000007  -0.000000
    23  C    0.000006  -0.000000   0.000000   0.000008  -0.000204   0.000000
    24  H    0.000001   0.000000   0.000000   0.000002   0.000152  -0.000001
    25  H    0.000000   0.000000  -0.000000   0.000000   0.000000  -0.000000
    26  H    0.000000   0.000000  -0.000000  -0.000000   0.000002  -0.000000
    27  H    0.000000  -0.000000   0.000000   0.000000   0.000000   0.000000
    28  H   -0.000000   0.000000  -0.000000  -0.000001   0.000052  -0.000000
    29  H    0.000029  -0.000000   0.000007   0.000017   0.002022   0.000008
    30  H   -0.000000   0.000000   0.000000  -0.000000   0.000004  -0.000000
    31  C    0.000000   0.000000   0.000000   0.000000  -0.000000   0.000000
    32  C   -0.000000   0.000000  -0.000000  -0.000000   0.000000   0.000000
    33  C    0.000000   0.000000   0.000000  -0.000000  -0.000000  -0.000000
    34  H    0.000000  -0.000000  -0.000000   0.000000  -0.000000   0.000000
    35  H   -0.000000  -0.000000  -0.000000   0.000000   0.000000  -0.000000
    36  H   -0.000000  -0.000000  -0.000000  -0.000000   0.000000  -0.000000
    37  H   -0.000000  -0.000000   0.000000   0.000000  -0.000000   0.000000
    38  H   -0.000000   0.000000  -0.000000  -0.000000   0.000000  -0.000000
    39  H   -0.000000  -0.000000  -0.000000  -0.000000  -0.000000   0.000000
    40  H   -0.000000   0.000000  -0.000000   0.000000   0.000000  -0.000000
              19         20         21         22         23         24
     1  C   -0.000070  -0.000087  -0.000000   0.000000  -0.000016  -0.000000
     2  C   -0.000001   0.000001   0.000000  -0.000000   0.000000   0.000000
     3  C   -0.000000  -0.000000  -0.000000  -0.000000  -0.000000   0.000000
     4  H    0.000013   0.000001  -0.000000  -0.000000  -0.000000   0.000000
     5  H   -0.000002   0.000001   0.000000  -0.000000   0.000093   0.000000
     6  H   -0.000002   0.000000  -0.000000   0.000000  -0.000000  -0.000000
     7  H    0.000000   0.000000  -0.000000  -0.000000  -0.000000   0.000000
     8  H   -0.000000  -0.000000  -0.000000   0.000000  -0.000000  -0.000000
     9  H    0.000000  -0.000000  -0.000000   0.000000  -0.000000   0.000000
    10  H   -0.000000   0.000000  -0.000000  -0.000000   0.000000  -0.000000
    11  C   -0.003785   0.004411   0.000000  -0.000000   0.000012   0.000000
    12  C   -0.038792  -0.035883  -0.000008   0.000011  -0.000412   0.000017
    13  C    0.391346   0.393960  -0.000002  -0.000000   0.000006   0.000001
    14  H    0.002623  -0.000059  -0.000000   0.000000  -0.000000   0.000000
    15  H    0.000159  -0.000059  -0.000000  -0.000000   0.000000   0.000000
    16  H   -0.002889  -0.002507  -0.000000  -0.000000   0.000008   0.000002
    17  H    0.004236  -0.002542   0.000011  -0.000007  -0.000204   0.000152
    18  H   -0.029099  -0.027573   0.000000  -0.000000   0.000000  -0.000001
    19  H    0.548229  -0.027483   0.000000   0.000000  -0.000000  -0.000000
    20  H   -0.027483   0.538288   0.000001  -0.000000   0.000001   0.000042
    21  C    0.000000   0.000001   5.084222   0.352110  -0.057160   0.396168
    22  C    0.000000  -0.000000   0.352110   5.060876   0.339324  -0.041908
    23  C   -0.000000   0.000001  -0.057160   0.339324   5.108517  -0.002669
    24  H   -0.000000   0.000042   0.396168  -0.041908  -0.002669   0.566382
    25  H   -0.000000  -0.000000   0.396154  -0.041882  -0.002864  -0.031438
    26  H    0.000000  -0.000000  -0.043641   0.399054  -0.039822  -0.002949
    27  H   -0.000000   0.000000  -0.043616   0.399158  -0.039794   0.004553
    28  H    0.000000  -0.000000  -0.003787  -0.038814   0.391909   0.000168
    29  H   -0.000000   0.000007  -0.003927  -0.038421   0.389865   0.002275
    30  H    0.000000  -0.000000   0.004398  -0.035732   0.393468  -0.000057
    31  C   -0.000000  -0.000000   0.355416  -0.051848   0.004050  -0.041657
    32  C    0.000000  -0.000000  -0.051897   0.003981  -0.000085  -0.003244
    33  C   -0.000000  -0.000000   0.004073  -0.000085   0.000001  -0.000052
    34  H   -0.000000  -0.000000  -0.041713  -0.003264  -0.000053  -0.002801
    35  H   -0.000000   0.000000  -0.041634  -0.003262  -0.000050   0.004458
    36  H   -0.000000   0.000000  -0.003195  -0.000065  -0.000000   0.002401
    37  H    0.000000  -0.000000  -0.003199  -0.000065  -0.000000   0.000237
    38  H   -0.000000   0.000000  -0.000070  -0.000001  -0.000000  -0.000001
    39  H    0.000000   0.000000  -0.000070  -0.000001  -0.000000   0.000013
    40  H    0.000000   0.000000  -0.000087   0.000001  -0.000000   0.000001
              25         26         27         28         29         30
     1  C   -0.000000  -0.000000  -0.000000  -0.000002  -0.000013   0.000000
     2  C    0.000000   0.000000   0.000000  -0.000000  -0.000000  -0.000000
     3  C    0.000000  -0.000000   0.000000  -0.000000   0.000000   0.000000
     4  H   -0.000000  -0.000000   0.000000  -0.000000  -0.000000   0.000000
     5  H    0.000000   0.000000   0.000000   0.000031   0.000151   0.000003
     6  H   -0.000000  -0.000000  -0.000000   0.000000   0.000000   0.000000
     7  H   -0.000000  -0.000000  -0.000000  -0.000000  -0.000000   0.000000
     8  H   -0.000000  -0.000000  -0.000000   0.000000   0.000000   0.000000
     9  H   -0.000000  -0.000000  -0.000000  -0.000000  -0.000000   0.000000
    10  H    0.000000   0.000000   0.000000  -0.000000  -0.000000  -0.000000
    11  C   -0.000000   0.000000   0.000000  -0.000001   0.000022  -0.000001
    12  C   -0.000000  -0.000000  -0.000000   0.000005  -0.000305   0.000008
    13  C    0.000000   0.000000   0.000000  -0.000000   0.000029  -0.000000
    14  H    0.000000   0.000000  -0.000000   0.000000  -0.000000   0.000000
    15  H   -0.000000  -0.000000   0.000000  -0.000000   0.000007   0.000000
    16  H    0.000000  -0.000000   0.000000  -0.000001   0.000017  -0.000000
    17  H    0.000000   0.000002   0.000000   0.000052   0.002022   0.000004
    18  H   -0.000000  -0.000000   0.000000  -0.000000   0.000008  -0.000000
    19  H   -0.000000   0.000000  -0.000000   0.000000  -0.000000   0.000000
    20  H   -0.000000  -0.000000   0.000000  -0.000000   0.000007  -0.000000
    21  C    0.396154  -0.043641  -0.043616  -0.003787  -0.003927   0.004398
    22  C   -0.041882   0.399054   0.399158  -0.038814  -0.038421  -0.035732
    23  C   -0.002864  -0.039822  -0.039794   0.391909   0.389865   0.393468
    24  H   -0.031438  -0.002949   0.004553   0.000168   0.002275  -0.000057
    25  H    0.566701   0.004570  -0.002976   0.002625   0.000167  -0.000059
    26  H    0.004570   0.564314  -0.031590   0.004218  -0.002941  -0.002509
    27  H   -0.002976  -0.031590   0.564035  -0.002888   0.004139  -0.002523
    28  H    0.002625   0.004218  -0.002888   0.548041  -0.029771  -0.027466
    29  H    0.000167  -0.002941   0.004139  -0.029771   0.541645  -0.027283
    30  H   -0.000059  -0.002509  -0.002523  -0.027466  -0.027283   0.537637
    31  C   -0.041730  -0.003209  -0.003203  -0.000070  -0.000055  -0.000087
    32  C   -0.003259  -0.000065  -0.000065  -0.000001  -0.000001   0.000001
    33  C   -0.000052  -0.000000  -0.000000  -0.000000   0.000000  -0.000000
    34  H    0.004469   0.002409   0.000238  -0.000001   0.000014   0.000001
    35  H   -0.002797   0.000240   0.002405   0.000013  -0.000003   0.000001
    36  H    0.000237   0.000017  -0.000003   0.000000  -0.000002   0.000000
    37  H    0.002407  -0.000003   0.000017  -0.000002   0.000000   0.000000
    38  H    0.000013   0.000000  -0.000002   0.000000  -0.000000  -0.000000
    39  H   -0.000001  -0.000002   0.000000  -0.000000   0.000000  -0.000000
    40  H    0.000001   0.000000   0.000000  -0.000000  -0.000000   0.000000
              31         32         33         34         35         36
     1  C    0.000000  -0.000000   0.000000  -0.000000  -0.000000   0.000000
     2  C   -0.000000  -0.000000  -0.000000   0.000000   0.000000   0.000000
     3  C    0.000000   0.000000   0.000000   0.000000  -0.000000  -0.000000
     4  H    0.000000  -0.000000   0.000000   0.000000  -0.000000  -0.000000
     5  H   -0.000000   0.000000  -0.000000   0.000000  -0.000000  -0.000000
     6  H    0.000000   0.000000  -0.000000  -0.000000   0.000000   0.000000
     7  H    0.000000  -0.000000   0.000000   0.000000  -0.000000  -0.000000
     8  H    0.000000  -0.000000   0.000000  -0.000000   0.000000   0.000000
     9  H    0.000000  -0.000000   0.000000   0.000000  -0.000000  -0.000000
    10  H   -0.000000  -0.000000   0.000000   0.000000  -0.000000  -0.000000
    11  C   -0.000000  -0.000000  -0.000000   0.000000   0.000000   0.000000
    12  C    0.000000  -0.000000   0.000000  -0.000000  -0.000000  -0.000000
    13  C    0.000000  -0.000000   0.000000   0.000000  -0.000000  -0.000000
    14  H    0.000000   0.000000   0.000000  -0.000000  -0.000000  -0.000000
    15  H    0.000000  -0.000000   0.000000  -0.000000  -0.000000  -0.000000
    16  H    0.000000  -0.000000  -0.000000   0.000000   0.000000  -0.000000
    17  H   -0.000000   0.000000  -0.000000  -0.000000   0.000000   0.000000
    18  H    0.000000   0.000000  -0.000000   0.000000  -0.000000  -0.000000
    19  H   -0.000000   0.000000  -0.000000  -0.000000  -0.000000  -0.000000
    20  H   -0.000000  -0.000000  -0.000000  -0.000000   0.000000   0.000000
    21  C    0.355416  -0.051897   0.004073  -0.041713  -0.041634  -0.003195
    22  C   -0.051848   0.003981  -0.000085  -0.003264  -0.003262  -0.000065
    23  C    0.004050  -0.000085   0.000001  -0.000053  -0.000050  -0.000000
    24  H   -0.041657  -0.003244  -0.000052  -0.002801   0.004458   0.002401
    25  H   -0.041730  -0.003259  -0.000052   0.004469  -0.002797   0.000237
    26  H   -0.003209  -0.000065  -0.000000   0.002409   0.000240   0.000017
    27  H   -0.003203  -0.000065  -0.000000   0.000238   0.002405  -0.000003
    28  H   -0.000070  -0.000001  -0.000000  -0.000001   0.000013   0.000000
    29  H   -0.000055  -0.000001   0.000000   0.000014  -0.000003  -0.000002
    30  H   -0.000087   0.000001  -0.000000   0.000001   0.000001   0.000000
    31  C    5.084178   0.352213  -0.057347   0.396086   0.396117  -0.043639
    32  C    0.352213   5.060491   0.340633  -0.041870  -0.041812   0.399136
    33  C   -0.057347   0.340633   5.097393  -0.002864  -0.002856  -0.039886
    34  H    0.396086  -0.041870  -0.002864   0.566994  -0.031504  -0.002986
    35  H    0.396117  -0.041812  -0.002856  -0.031504   0.566681   0.004565
    36  H   -0.043639   0.399136  -0.039886  -0.002986   0.004565   0.564292
    37  H   -0.043654   0.399123  -0.039888   0.004571  -0.002974  -0.031645
    38  H   -0.003797  -0.038900   0.391272   0.000158   0.002623   0.004220
    39  H   -0.003795  -0.038900   0.391273   0.002626   0.000159  -0.002892
    40  H    0.004399  -0.035834   0.394108  -0.000059  -0.000059  -0.002506
              37         38         39         40
     1  C    0.000000   0.000000   0.000000  -0.000000
     2  C   -0.000000  -0.000000  -0.000000   0.000000
     3  C    0.000000   0.000000   0.000000   0.000000
     4  H   -0.000000  -0.000000  -0.000000  -0.000000
     5  H   -0.000000  -0.000000  -0.000000   0.000000
     6  H    0.000000   0.000000   0.000000   0.000000
     7  H    0.000000   0.000000   0.000000  -0.000000
     8  H    0.000000   0.000000   0.000000  -0.000000
     9  H    0.000000   0.000000   0.000000   0.000000
    10  H   -0.000000   0.000000   0.000000   0.000000
    11  C    0.000000  -0.000000   0.000000   0.000000
    12  C   -0.000000   0.000000   0.000000  -0.000000
    13  C   -0.000000  -0.000000  -0.000000  -0.000000
    14  H   -0.000000   0.000000  -0.000000   0.000000
    15  H    0.000000  -0.000000  -0.000000  -0.000000
    16  H    0.000000  -0.000000  -0.000000   0.000000
    17  H   -0.000000   0.000000  -0.000000   0.000000
    18  H    0.000000  -0.000000   0.000000  -0.000000
    19  H    0.000000  -0.000000   0.000000   0.000000
    20  H   -0.000000   0.000000   0.000000   0.000000
    21  C   -0.003199  -0.000070  -0.000070  -0.000087
    22  C   -0.000065  -0.000001  -0.000001   0.000001
    23  C   -0.000000  -0.000000  -0.000000  -0.000000
    24  H    0.000237  -0.000001   0.000013   0.000001
    25  H    0.002407   0.000013  -0.000001   0.000001
    26  H   -0.000003   0.000000  -0.000002   0.000000
    27  H    0.000017  -0.000002   0.000000   0.000000
    28  H   -0.000002   0.000000  -0.000000  -0.000000
    29  H    0.000000  -0.000000   0.000000  -0.000000
    30  H    0.000000  -0.000000  -0.000000   0.000000
    31  C   -0.043654  -0.003797  -0.003795   0.004399
    32  C    0.399123  -0.038900  -0.038900  -0.035834
    33  C   -0.039888   0.391272   0.391273   0.394108
    34  H    0.004571   0.000158   0.002626  -0.000059
    35  H   -0.002974   0.002623   0.000159  -0.000059
    36  H   -0.031645   0.004220  -0.002892  -0.002506
    37  H    0.564270  -0.002891   0.004220  -0.002506
    38  H   -0.002891   0.548830  -0.029144  -0.027491
    39  H    0.004220  -0.029144   0.548802  -0.027490
    40  H   -0.002506  -0.027491  -0.027490   0.537242
 Mulliken charges:
               1
     1  C   -0.299209
     2  C   -0.299633
     3  C   -0.475735
     4  H    0.149533
     5  H    0.151077
     6  H    0.151768
     7  H    0.151917
     8  H    0.155440
     9  H    0.155079
    10  H    0.160106
    11  C   -0.297487
    12  C   -0.309373
    13  C   -0.475166
    14  H    0.149478
    15  H    0.149474
    16  H    0.152331
    17  H    0.160171
    18  H    0.155034
    19  H    0.155515
    20  H    0.159483
    21  C   -0.298547
    22  C   -0.299160
    23  C   -0.484123
    24  H    0.149906
    25  H    0.149712
    26  H    0.151908
    27  H    0.152117
    28  H    0.155739
    29  H    0.162352
    30  H    0.160196
    31  C   -0.298368
    32  C   -0.299646
    33  C   -0.475721
    34  H    0.149548
    35  H    0.149690
    36  H    0.151951
    37  H    0.151981
    38  H    0.155179
    39  H    0.155202
    40  H    0.160280
 Sum of Mulliken charges =  -0.00000
 Mulliken charges with hydrogens summed into heavy atoms:
               1
     1  C    0.001401
     2  C    0.004052
     3  C   -0.005111
    11  C    0.001465
    12  C    0.003129
    13  C   -0.005134
    21  C    0.001071
    22  C    0.004865
    23  C   -0.005836
    31  C    0.000870
    32  C    0.004286
    33  C   -0.005059
 Electronic spatial extent (au):  <R**2>=           6919.7115
 Charge=             -0.0000 electrons
 Dipole moment (field-independent basis, Debye):
    X=              0.0069    Y=             -0.0102    Z=             -0.0050  Tot=              0.0133
 Quadrupole moment (field-independent basis, Debye-Ang):
   XX=            -86.0251   YY=            -84.7226   ZZ=            -84.0456
   XY=             -1.0599   XZ=             -0.0786   YZ=             -0.4110
 Traceless Quadrupole moment (field-independent basis, Debye-Ang):
   XX=             -1.0940   YY=              0.2085   ZZ=              0.8855
   XY=             -1.0599   XZ=             -0.0786   YZ=             -0.4110
 Octapole moment (field-independent basis, Debye-Ang**2):
  XXX=            -10.3801  YYY=             -2.0370  ZZZ=             -0.0457  XYY=              3.9687
  XXY=              0.9439  XXZ=             -1.0768  XZZ=             -0.4521  YZZ=              0.2998
  YYZ=             -1.5750  XYZ=              5.0176
 Hexadecapole moment (field-independent basis, Debye-Ang**3):
 XXXX=          -8276.9657 YYYY=          -1240.8647 ZZZZ=           -417.1697 XXXY=            -40.8249
 XXXZ=             -3.9974 YYYX=            -12.1595 YYYZ=            -11.7613 ZZZX=             -1.9370
 ZZZY=             -0.5777 XXYY=          -1558.3132 XXZZ=          -1422.2884 YYZZ=           -278.4468
 XXYZ=             -9.1306 YYXZ=             -3.9322 ZZXY=              1.3448
 N-N= 6.725758343137D+02 E-N=-2.438287727232D+03  KE= 4.702256461785D+02
 Leave Link  601 at Thu May  6 08:26:28 2021, MaxMem=   524288000 cpu:               0.8 elap:               0.8
 (Enter /opt/gaussian/g16_legacy/l9999.exe)
 1\1\GINC-TRUENO90\SP\RMP2-FC\6-31G(d)\C12H28\JRAMOS\06-May-2021\0\\#p 
 6-31g* mp2\\Input file generated by CHIRIPA (05-May-2021 14:51:08)\\0,
 1\C,0,-0.666,-0.374,0.\C,0,-1.882,0.553,0.\C,0,-3.207,-0.21,0.\H,0,-0.
 713,-1.03,-0.88\H,0,-0.713,-1.029,0.881\H,0,-1.832,1.207,-0.88\H,0,-1.
 832,1.207,0.88\H,0,-3.283,-0.85,0.885\H,0,-3.283,-0.85,-0.885\H,0,-4.0
 63,0.472,0.\C,0,0.666,0.374,0.\C,0,1.882,-0.553,0.\C,0,3.207,0.21,0.\H
 ,0,0.713,1.029,-0.881\H,0,0.713,1.03,0.88\H,0,1.832,-1.207,-0.88\H,0,1
 .832,-1.207,0.88\H,0,3.283,0.85,0.885\H,0,3.283,0.85,-0.885\H,0,4.063,
 -0.472,0.\C,0,3.458196,-4.855806,2.610979\C,0,2.715882,-4.269852,3.812
 484\C,0,1.461243,-3.493609,3.411088\H,0,3.732226,-4.042527,1.9251\H,0,
 2.778617,-5.517196,2.055884\H,0,3.397074,-3.610845,4.36593\H,0,2.44375
 6,-5.084599,4.495676\H,0,0.760007,-4.143822,2.878084\H,0,1.718742,-2.6
 61695,2.747602\H,0,0.946095,-3.083416,4.285287\C,0,4.714679,-5.634671,
 2.996136\C,0,5.456993,-6.220625,1.794631\C,0,6.711633,-6.996868,2.1960
 27\H,0,5.394258,-4.973281,3.551231\H,0,4.44065,-6.44795,3.682015\H,0,5
 .729119,-5.405878,1.111439\H,0,4.775801,-6.879632,1.241184\H,0,6.45413
 4,-7.828782,2.859513\H,0,7.412868,-6.346655,2.72903\H,0,7.226781,-7.40
 7061,1.321827\\Version=EM64L-G16RevA.03\State=1-A\HF=-470.7333768\MP2=
 -472.3160691\RMSD=2.010e-09\PG=C01 [X(C12H28)]\\@


 YOU WILL NEVER "FIND" TIME FOR ANYTHING.
 IF YOU WANT TIME, YOU MUST MAKE IT.

                        -- CHARLES BIXTON
 Job cpu time:       0 days  0 hours  1 minutes 58.1 seconds.
 Elapsed time:       0 days  0 hours  1 minutes  7.2 seconds.
 File lengths (MBytes):  RWF=     26 Int=      0 D2E=      0 Chk=      5 Scr=      1
 Normal termination of Gaussian 16 at Thu May  6 08:26:28 2021.
