 Entering Gaussian System, Link 0=/opt/gaussian/g16_legacy/g16
 Input=gaussian_01463_1_1.com
 Output=gaussian_01463_1_1.log
 Initial command:
 /opt/gaussian/g16_legacy/l1.exe "/scratch-local/jramos/2593569/Gau-10135.inp" -scrdir="/scratch-local/jramos/2593569/"
 Entering Link 1 = /opt/gaussian/g16_legacy/l1.exe PID=     10136.
  
 Copyright (c) 1988,1990,1992,1993,1995,1998,2003,2009,2016,
            Gaussian, Inc.  All Rights Reserved.
  
 This is part of the Gaussian(R) 16 program.  It is based on
 the Gaussian(R) 09 system (copyright 2009, Gaussian, Inc.),
 the Gaussian(R) 03 system (copyright 2003, Gaussian, Inc.),
 the Gaussian(R) 98 system (copyright 1998, Gaussian, Inc.),
 the Gaussian(R) 94 system (copyright 1995, Gaussian, Inc.),
 the Gaussian 92(TM) system (copyright 1992, Gaussian, Inc.),
 the Gaussian 90(TM) system (copyright 1990, Gaussian, Inc.),
 the Gaussian 88(TM) system (copyright 1988, Gaussian, Inc.),
 the Gaussian 86(TM) system (copyright 1986, Carnegie Mellon
 University), and the Gaussian 82(TM) system (copyright 1983,
 Carnegie Mellon University). Gaussian is a federally registered
 trademark of Gaussian, Inc.
  
 This software contains proprietary and confidential information,
 including trade secrets, belonging to Gaussian, Inc.
  
 This software is provided under written license and may be
 used, copied, transmitted, or stored only in accord with that
 written license.
  
 The following legend is applicable only to US Government
 contracts under FAR:
  
                    RESTRICTED RIGHTS LEGEND
  
 Use, reproduction and disclosure by the US Government is
 subject to restrictions as set forth in subparagraphs (a)
 and (c) of the Commercial Computer Software - Restricted
 Rights clause in FAR 52.227-19.
  
 Gaussian, Inc.
 340 Quinnipiac St., Bldg. 40, Wallingford CT 06492
  
  
 ---------------------------------------------------------------
 Warning -- This program may not be used in any manner that
 competes with the business of Gaussian, Inc. or will provide
 assistance to any competitor of Gaussian, Inc.  The licensee
 of this program is prohibited from giving any competitor of
 Gaussian, Inc. access to this program.  By using this program,
 the user acknowledges that Gaussian, Inc. is engaged in the
 business of creating and licensing software in the field of
 computational chemistry and represents and warrants to the
 licensee that it is not a competitor of Gaussian, Inc. and that
 it will not use this program in any manner prohibited above.
 ---------------------------------------------------------------
  

 Cite this work as:
 Gaussian 16, Revision A.03,
 M. J. Frisch, G. W. Trucks, H. B. Schlegel, G. E. Scuseria, 
 M. A. Robb, J. R. Cheeseman, G. Scalmani, V. Barone, 
 G. A. Petersson, H. Nakatsuji, X. Li, M. Caricato, A. V. Marenich, 
 J. Bloino, B. G. Janesko, R. Gomperts, B. Mennucci, H. P. Hratchian, 
 J. V. Ortiz, A. F. Izmaylov, J. L. Sonnenberg, D. Williams-Young, 
 F. Ding, F. Lipparini, F. Egidi, J. Goings, B. Peng, A. Petrone, 
 T. Henderson, D. Ranasinghe, V. G. Zakrzewski, J. Gao, N. Rega, 
 G. Zheng, W. Liang, M. Hada, M. Ehara, K. Toyota, R. Fukuda, 
 J. Hasegawa, M. Ishida, T. Nakajima, Y. Honda, O. Kitao, H. Nakai, 
 T. Vreven, K. Throssell, J. A. Montgomery, Jr., J. E. Peralta, 
 F. Ogliaro, M. J. Bearpark, J. J. Heyd, E. N. Brothers, K. N. Kudin, 
 V. N. Staroverov, T. A. Keith, R. Kobayashi, J. Normand, 
 K. Raghavachari, A. P. Rendell, J. C. Burant, S. S. Iyengar, 
 J. Tomasi, M. Cossi, J. M. Millam, M. Klene, C. Adamo, R. Cammi, 
 J. W. Ochterski, R. L. Martin, K. Morokuma, O. Farkas, 
 J. B. Foresman, and D. J. Fox, Gaussian, Inc., Wallingford CT, 2016.
 
 ******************************************
 Gaussian 16:  EM64L-G16RevA.03 25-Dec-2016
                 6-May-2021 
 ******************************************
 %chk=gaussian_01463_1_1.chk
 %nproc=2
 Will use up to    2 processors via shared memory.
 %mem=4000Mb
 -------------
 #p 6-31g* mp2
 -------------
 1/38=1,172=1/1;
 2/12=2,17=6,18=5,40=1/2;
 3/5=1,6=6,7=1,11=9,25=1,30=1/1,2,3;
 4//1;
 5/5=2,38=5/2;
 8/10=2/1;
 9/16=-3/6;
 6/7=2,8=2,9=2,10=2/1;
 99/5=1,9=1/99;
 Leave Link    1 at Thu May  6 05:18:46 2021, MaxMem=   524288000 cpu:               0.1 elap:               0.1
 (Enter /opt/gaussian/g16_legacy/l101.exe)
 ------------------------------------------------------
 Input file generated by CHIRIPA (05-May-2021 14:51:09)
 ------------------------------------------------------
 Symbolic Z-matrix:
 Charge =  0 Multiplicity = 1
 C                    -0.666    -0.374     0. 
 C                    -1.882     0.553     0. 
 C                    -3.207    -0.21      0. 
 H                    -0.713    -1.03     -0.88 
 H                    -0.713    -1.029     0.881 
 H                    -1.832     1.207    -0.88 
 H                    -1.832     1.207     0.88 
 H                    -3.283    -0.85      0.885 
 H                    -3.283    -0.85     -0.885 
 H                    -4.063     0.472     0. 
 C                     0.666     0.374     0. 
 C                     1.882    -0.553     0. 
 C                     3.207     0.21      0. 
 H                     0.713     1.029    -0.881 
 H                     0.713     1.03      0.88 
 H                     1.832    -1.207    -0.88 
 H                     1.832    -1.207     0.88 
 H                     3.283     0.85      0.885 
 H                     3.283     0.85     -0.885 
 H                     4.063    -0.472     0. 
 C                    -7.05936   0.92689   0.68354 
 C                    -7.55842   1.2203    2.09876 
 C                    -6.43602   1.64913   3.04434 
 H                    -6.29408   0.13989   0.72726 
 H                    -6.56409   1.82262   0.28382 
 H                    -8.05382   0.32472   2.49516 
 H                    -8.32274   2.00656   2.05164 
 H                    -5.94658   2.55612   2.67498 
 H                    -5.67613   0.86472   3.12101 
 H                    -6.81499   1.85386   4.05049 
 C                    -8.1698    0.49697  -0.27345 
 C                    -7.67075   0.20356  -1.68866 
 C                    -8.79315  -0.22527  -2.63425 
 H                    -8.66507  -0.39876   0.12627 
 H                    -8.93509   1.28397  -0.31716 
 H                    -6.90643  -0.5827   -1.64155 
 H                    -7.17535   1.09913  -2.08507 
 H                    -9.55304   0.55913  -2.71092 
 H                    -9.28258  -1.13226  -2.26489 
 H                    -8.41418  -0.43     -3.64039 
 
 ITRead=  0  0  0  0  0  0  0  0  0  0  0  0  0  0  0  0  0  0  0  0
 ITRead=  0  0  0  0  0  0  0  0  0  0  0  0  0  0  0  0  0  0  0  0
 MicOpt= -1 -1 -1 -1 -1 -1 -1 -1 -1 -1 -1 -1 -1 -1 -1 -1 -1 -1 -1 -1
 MicOpt= -1 -1 -1 -1 -1 -1 -1 -1 -1 -1 -1 -1 -1 -1 -1 -1 -1 -1 -1 -1
 NAtoms=     40 NQM=       40 NQMF=       0 NMMI=      0 NMMIF=      0
                NMic=       0 NMicF=      0.
                    Isotopes and Nuclear Properties:
 (Nuclear quadrupole moments (NQMom) in fm**2, nuclear magnetic moments (NMagM)
  in nuclear magnetons)

  Atom         1           2           3           4           5           6           7           8           9          10
 IAtWgt=          12          12          12           1           1           1           1           1           1           1
 AtmWgt=  12.0000000  12.0000000  12.0000000   1.0078250   1.0078250   1.0078250   1.0078250   1.0078250   1.0078250   1.0078250
 NucSpn=           0           0           0           1           1           1           1           1           1           1
 AtZEff=  -0.0000000  -0.0000000  -0.0000000  -0.0000000  -0.0000000  -0.0000000  -0.0000000  -0.0000000  -0.0000000  -0.0000000
 NQMom=    0.0000000   0.0000000   0.0000000   0.0000000   0.0000000   0.0000000   0.0000000   0.0000000   0.0000000   0.0000000
 NMagM=    0.0000000   0.0000000   0.0000000   2.7928460   2.7928460   2.7928460   2.7928460   2.7928460   2.7928460   2.7928460
 AtZNuc=   6.0000000   6.0000000   6.0000000   1.0000000   1.0000000   1.0000000   1.0000000   1.0000000   1.0000000   1.0000000

  Atom        11          12          13          14          15          16          17          18          19          20
 IAtWgt=          12          12          12           1           1           1           1           1           1           1
 AtmWgt=  12.0000000  12.0000000  12.0000000   1.0078250   1.0078250   1.0078250   1.0078250   1.0078250   1.0078250   1.0078250
 NucSpn=           0           0           0           1           1           1           1           1           1           1
 AtZEff=  -0.0000000  -0.0000000  -0.0000000  -0.0000000  -0.0000000  -0.0000000  -0.0000000  -0.0000000  -0.0000000  -0.0000000
 NQMom=    0.0000000   0.0000000   0.0000000   0.0000000   0.0000000   0.0000000   0.0000000   0.0000000   0.0000000   0.0000000
 NMagM=    0.0000000   0.0000000   0.0000000   2.7928460   2.7928460   2.7928460   2.7928460   2.7928460   2.7928460   2.7928460
 AtZNuc=   6.0000000   6.0000000   6.0000000   1.0000000   1.0000000   1.0000000   1.0000000   1.0000000   1.0000000   1.0000000

  Atom        21          22          23          24          25          26          27          28          29          30
 IAtWgt=          12          12          12           1           1           1           1           1           1           1
 AtmWgt=  12.0000000  12.0000000  12.0000000   1.0078250   1.0078250   1.0078250   1.0078250   1.0078250   1.0078250   1.0078250
 NucSpn=           0           0           0           1           1           1           1           1           1           1
 AtZEff=  -0.0000000  -0.0000000  -0.0000000  -0.0000000  -0.0000000  -0.0000000  -0.0000000  -0.0000000  -0.0000000  -0.0000000
 NQMom=    0.0000000   0.0000000   0.0000000   0.0000000   0.0000000   0.0000000   0.0000000   0.0000000   0.0000000   0.0000000
 NMagM=    0.0000000   0.0000000   0.0000000   2.7928460   2.7928460   2.7928460   2.7928460   2.7928460   2.7928460   2.7928460
 AtZNuc=   6.0000000   6.0000000   6.0000000   1.0000000   1.0000000   1.0000000   1.0000000   1.0000000   1.0000000   1.0000000

  Atom        31          32          33          34          35          36          37          38          39          40
 IAtWgt=          12          12          12           1           1           1           1           1           1           1
 AtmWgt=  12.0000000  12.0000000  12.0000000   1.0078250   1.0078250   1.0078250   1.0078250   1.0078250   1.0078250   1.0078250
 NucSpn=           0           0           0           1           1           1           1           1           1           1
 AtZEff=  -0.0000000  -0.0000000  -0.0000000  -0.0000000  -0.0000000  -0.0000000  -0.0000000  -0.0000000  -0.0000000  -0.0000000
 NQMom=    0.0000000   0.0000000   0.0000000   0.0000000   0.0000000   0.0000000   0.0000000   0.0000000   0.0000000   0.0000000
 NMagM=    0.0000000   0.0000000   0.0000000   2.7928460   2.7928460   2.7928460   2.7928460   2.7928460   2.7928460   2.7928460
 AtZNuc=   6.0000000   6.0000000   6.0000000   1.0000000   1.0000000   1.0000000   1.0000000   1.0000000   1.0000000   1.0000000
 Leave Link  101 at Thu May  6 05:18:46 2021, MaxMem=   524288000 cpu:               0.4 elap:               0.3
 (Enter /opt/gaussian/g16_legacy/l202.exe)
                          Input orientation:                          
 ---------------------------------------------------------------------
 Center     Atomic      Atomic             Coordinates (Angstroms)
 Number     Number       Type             X           Y           Z
 ---------------------------------------------------------------------
      1          6           0       -0.666000   -0.374000    0.000000
      2          6           0       -1.882000    0.553000    0.000000
      3          6           0       -3.207000   -0.210000    0.000000
      4          1           0       -0.713000   -1.030000   -0.880000
      5          1           0       -0.713000   -1.029000    0.881000
      6          1           0       -1.832000    1.207000   -0.880000
      7          1           0       -1.832000    1.207000    0.880000
      8          1           0       -3.283000   -0.850000    0.885000
      9          1           0       -3.283000   -0.850000   -0.885000
     10          1           0       -4.063000    0.472000    0.000000
     11          6           0        0.666000    0.374000    0.000000
     12          6           0        1.882000   -0.553000    0.000000
     13          6           0        3.207000    0.210000    0.000000
     14          1           0        0.713000    1.029000   -0.881000
     15          1           0        0.713000    1.030000    0.880000
     16          1           0        1.832000   -1.207000   -0.880000
     17          1           0        1.832000   -1.207000    0.880000
     18          1           0        3.283000    0.850000    0.885000
     19          1           0        3.283000    0.850000   -0.885000
     20          1           0        4.063000   -0.472000    0.000000
     21          6           0       -7.059363    0.926890    0.683538
     22          6           0       -7.558415    1.220298    2.098756
     23          6           0       -6.436020    1.649128    3.044341
     24          1           0       -6.294077    0.139889    0.727255
     25          1           0       -6.564094    1.822619    0.283824
     26          1           0       -8.053815    0.324721    2.495160
     27          1           0       -8.322740    2.006557    2.051644
     28          1           0       -5.946584    2.556115    2.674979
     29          1           0       -5.676132    0.864722    3.121015
     30          1           0       -6.814991    1.853860    4.050485
     31          6           0       -8.169804    0.496966   -0.273445
     32          6           0       -7.670753    0.203557   -1.688664
     33          6           0       -8.793147   -0.225272   -2.634248
     34          1           0       -8.665074   -0.398764    0.126269
     35          1           0       -8.935091    1.283966   -0.317162
     36          1           0       -6.906428   -0.582702   -1.641551
     37          1           0       -7.175352    1.099135   -2.085067
     38          1           0       -9.553036    0.559133   -2.710922
     39          1           0       -9.282583   -1.132259   -2.264886
     40          1           0       -8.414176   -0.430004   -3.640392
 ---------------------------------------------------------------------
                    Distance matrix (angstroms):
                    1          2          3          4          5
     1  C    0.000000
     2  C    1.529047   0.000000
     3  C    2.546287   1.528985   0.000000
     4  H    1.098610   2.155655   2.768905   0.000000
     5  H    1.098815   2.155330   2.768927   1.761000   0.000000
     6  H    2.152561   1.097550   2.161692   2.501266   3.058264
     7  H    2.152561   1.097550   2.161692   3.058420   2.500372
     8  H    2.803300   2.171275   1.094806   3.122903   2.576229
     9  H    2.803300   2.171275   1.094806   2.576301   3.123411
    10  H    3.500761   2.182504   1.094468   3.775302   3.775137
    11  C    1.527654   2.554280   3.916782   2.155750   2.155507
    12  C    2.554280   3.923128   5.100546   2.781358   2.781504
    13  C    3.916782   5.100546   6.427736   4.204569   4.204484
    14  H    2.155507   2.781504   4.204484   2.504587   3.061615
    15  H    2.155750   2.781358   4.204569   3.061809   2.504587
    16  H    2.776381   4.203070   5.211519   2.551148   3.099973
    17  H    2.776381   4.203070   5.211519   3.099347   2.551217
    18  H    4.228002   5.248682   6.635279   4.755801   4.415730
    19  H    4.228002   5.248682   6.635279   4.416157   4.755777
    20  H    4.730015   6.032715   7.274720   4.888347   4.888413
    21  C    6.560078   5.235657   4.074364   6.822785   6.643856
    22  C    7.379156   6.088658   5.038387   7.797213   7.307666
    23  C    6.830387   5.586466   4.811542   7.438490   6.678725
    24  H    5.698090   4.490655   3.190825   5.924553   5.704240
    25  H    6.300254   4.859475   3.934740   6.612656   6.536333
    26  H    7.829039   6.661024   5.477533   8.192346   7.637122
    27  H    8.276591   6.914131   5.940805   8.701917   8.276059
    28  H    6.604972   5.262017   4.723582   7.272448   6.592557
    29  H    6.031301   4.922737   4.122181   6.650622   5.765113
    30  H    7.692846   6.514067   5.803753   8.358267   7.455925
    31  C    7.559129   6.293996   5.020358   7.635670   7.698392
    32  C    7.228535   6.040146   4.790376   7.112378   7.518823
    33  C    8.544700   7.436997   6.176126   8.307451   8.848261
    34  H    8.000109   6.850685   5.462797   8.040306   8.012634
    35  H    8.439627   7.097957   5.928200   8.560024   8.624859
    36  H    6.456097   5.406421   4.064402   6.256084   6.702313
    37  H    6.992088   5.715360   4.670027   6.909949   7.422163
    38  H    9.338054   8.135965   6.943546   9.166453   9.673175
    39  H    8.941486   7.920760   6.549273   8.681366   9.129349
    40  H    8.560947   7.542418   6.357322   8.202918   8.950413
                    6          7          8          9         10
     6  H    0.000000
     7  H    1.760000   0.000000
     8  H    3.074390   2.517275   0.000000
     9  H    2.517275   3.074390   1.770000   0.000000
    10  H    2.508383   2.508383   1.771810   1.771810   0.000000
    11  C    2.776381   2.776381   4.228002   4.228002   4.730015
    12  C    4.203070   4.203070   5.248682   5.248682   6.032715
    13  C    5.211519   5.211519   6.635279   6.635279   7.274720
    14  H    2.551217   3.099973   4.755777   4.415730   4.888413
    15  H    3.099347   2.551148   4.416157   4.755801   4.888347
    16  H    4.387743   4.727567   5.422721   5.127446   6.192291
    17  H    4.727567   4.387743   5.127446   5.422721   6.192291
    18  H    5.422721   5.127446   6.782504   7.009654   7.408767
    19  H    5.127446   5.422721   7.009654   6.782504   7.408767
    20  H    6.192291   6.192291   7.408767   7.408767   8.180649
    21  C    5.463372   5.238548   4.178378   4.458539   3.106822
    22  C    6.454843   5.854688   4.902908   5.609644   4.145196
    23  C    6.065718   5.106550   4.566172   5.623780   4.035451
    24  H    4.861288   4.590445   3.173539   3.556098   2.370000
    25  H    4.911841   4.809067   4.274328   4.390287   2.856606
    26  H    7.133099   6.488308   5.170422   5.963734   4.708940
    27  H    7.166836   6.643926   5.909311   6.494827   4.970864
    28  H    5.602481   4.687415   4.679778   5.600870   3.879038
    29  H    5.559013   4.462808   3.696906   4.971469   3.535132
    30  H    7.039766   5.941431   5.459498   6.644158   5.088165
    31  C    6.406233   6.480921   5.199727   5.105798   4.115973
    32  C    5.979287   6.457242   5.194815   4.583474   3.992434
    33  C    7.320270   7.928361   6.567885   5.814798   5.458914
    34  H    7.090977   7.059567   5.453990   5.494816   4.685430
    35  H    7.125771   7.203681   6.159962   6.068145   4.949460
    36  H    5.434410   5.942312   4.425397   3.711206   3.448502
    37  H    5.478616   6.111847   5.269804   4.515495   3.798360
    38  H    7.961558   8.539839   7.364079   6.680793   6.123495
    39  H    7.931030   8.418648   6.782068   6.162690   5.911633
    40  H    7.322881   8.150998   6.854527   5.839311   5.744458
                   11         12         13         14         15
    11  C    0.000000
    12  C    1.529047   0.000000
    13  C    2.546287   1.528985   0.000000
    14  H    1.098815   2.155330   2.768927   0.000000
    15  H    1.098610   2.155655   2.768905   1.761000   0.000000
    16  H    2.152561   1.097550   2.161692   2.500372   3.058420
    17  H    2.152561   1.097550   2.161692   3.058264   2.501266
    18  H    2.803300   2.171275   1.094806   3.123411   2.576301
    19  H    2.803300   2.171275   1.094806   2.576229   3.122903
    20  H    3.500761   2.182504   1.094468   3.775137   3.775302
    21  C    7.775226   9.088744  10.314037   7.928924   7.775529
    22  C    8.530064   9.832131  11.014519   8.793853   8.362887
    23  C    7.831517   9.127258  10.214056   8.179324   7.495077
    24  H    7.001884   8.237550   9.529128   7.244041   7.065038
    25  H    7.379249   8.778418   9.907339   7.412337   7.344370
    26  H    9.069919  10.281860  11.534511   9.420802   8.942215
    27  H    9.363329  10.719016  11.847859   9.549901   9.163570
    28  H    7.459451   8.837920   9.820788   7.702410   7.064067
    29  H    7.085491   8.299158   9.438190   7.540830   6.772774
    30  H    8.634908   9.891262  10.933847   9.037178   8.209834
    31  C    8.840889  10.110191  11.383707   8.919439   8.973225
    32  C    8.507766   9.730316  11.008049   8.462919   8.807290
    33  C    9.837370  11.000247  12.293586   9.747508  10.212369
    34  H    9.363869  10.548957  11.888342   9.539464   9.516184
    35  H    9.649330  10.976543  12.193620   9.667915   9.725397
    36  H    7.807153   8.940472  10.276405   7.825069   8.186251
    37  H    8.146172   9.439951  10.626914   7.980025   8.427485
    38  H   10.574123  11.804490  13.049502  10.438433  10.886135
    39  H   10.313720  11.406716  12.764053  10.319780  10.699409
    40  H    9.815726  10.921484  12.194826   9.646154  10.289358
                   16         17         18         19         20
    16  H    0.000000
    17  H    1.760000   0.000000
    18  H    3.074390   2.517275   0.000000
    19  H    2.517275   3.074390   1.770000   0.000000
    20  H    2.508383   2.508383   1.771810   1.771810   0.000000
    21  C    9.276555   9.145951  10.344611  10.460913  11.230809
    22  C   10.146165   9.775328  10.915430  11.250609  11.930043
    23  C    9.587391   9.011215   9.988028  10.513690  11.135377
    24  H    8.392288   8.238360   9.604663   9.737763  10.400594
    25  H    9.001526   8.945860   9.913257   9.963804  10.875705
    26  H   10.557803  10.133324  11.462631  11.841654  12.396685
    27  H   11.047182  10.715337  11.721428  12.027248  12.796837
    28  H    9.343729   8.825494   9.555107  10.038401  10.794293
    29  H    8.756266   8.104704   9.233960   9.813991  10.313983
    30  H   10.413885   9.705220  10.630026  11.284333  11.838359
    31  C   10.164029  10.211269  11.516655  11.474552  12.274166
    32  C    9.640847   9.944346  11.270596  11.002203  11.873876
    33  C   10.813645  11.234210  12.624367  12.249465  13.125572
    34  H   10.576123  10.555090  12.037091  12.055644  12.728911
    35  H   11.065801  11.116130  12.284758  12.238975  13.119999
    36  H    8.793738   9.116364  10.595307  10.317434  11.092128
    37  H    9.375651   9.759215  10.874764  10.529927  11.537613
    38  H   11.665785  12.067849  13.333382  12.968516  13.921522
    39  H   11.200779  11.551184  13.105152  12.795597  13.552499
    40  H   10.639906  11.225943  12.607201  12.085302  12.997467
                   21         22         23         24         25
    21  C    0.000000
    22  C    1.529046   0.000000
    23  C    2.546287   1.528986   0.000000
    24  H    1.098610   2.155655   2.768906   0.000000
    25  H    1.098814   2.155329   2.768927   1.761000   0.000000
    26  H    2.152560   1.097550   2.161692   2.501265   3.058263
    27  H    2.152560   1.097550   2.161693   3.058419   2.500371
    28  H    2.803300   2.171276   1.094807   3.122904   2.576229
    29  H    2.803299   2.171275   1.094807   2.576301   3.123411
    30  H    3.500760   2.182505   1.094468   3.775302   3.775137
    31  C    1.527655   2.554279   3.916783   2.155750   2.155507
    32  C    2.554281   3.923128   5.100547   2.781358   2.781504
    33  C    3.916783   5.100545   6.427736   4.204568   4.204483
    34  H    2.155508   2.781503   4.204484   2.504587   3.061614
    35  H    2.155750   2.781358   4.204569   3.061809   2.504587
    36  H    2.776382   4.203069   5.211519   2.551147   3.099973
    37  H    2.776382   4.203069   5.211519   3.099347   2.551217
    38  H    4.228003   5.248681   6.635279   4.755801   4.415730
    39  H    4.228003   5.248681   6.635279   4.416156   4.755776
    40  H    4.730016   6.032714   7.274720   4.888347   4.888413
                   26         27         28         29         30
    26  H    0.000000
    27  H    1.760000   0.000000
    28  H    3.074390   2.517276   0.000000
    29  H    2.517275   3.074390   1.770001   0.000000
    30  H    2.508383   2.508384   1.771810   1.771809   0.000000
    31  C    2.776382   2.776381   4.228003   4.228002   4.730016
    32  C    4.203070   4.203070   5.248683   5.248682   6.032716
    33  C    5.211519   5.211519   6.635279   6.635279   7.274720
    34  H    2.551218   3.099973   4.755778   4.415730   4.888414
    35  H    3.099347   2.551147   4.416157   4.755801   4.888348
    36  H    4.387743   4.727567   5.422721   5.127446   6.192291
    37  H    4.727567   4.387743   5.127446   5.422721   6.192291
    38  H    5.422721   5.127446   6.782504   7.009655   7.408767
    39  H    5.127446   5.422720   7.009655   6.782503   7.408767
    40  H    6.192291   6.192291   7.408767   7.408767   8.180649
                   31         32         33         34         35
    31  C    0.000000
    32  C    1.529047   0.000000
    33  C    2.546287   1.528984   0.000000
    34  H    1.098816   2.155330   2.768927   0.000000
    35  H    1.098610   2.155656   2.768905   1.761000   0.000000
    36  H    2.152560   1.097550   2.161692   2.500371   3.058419
    37  H    2.152560   1.097551   2.161692   3.058264   2.501266
    38  H    2.803300   2.171275   1.094807   3.123411   2.576301
    39  H    2.803300   2.171274   1.094807   2.576229   3.122903
    40  H    3.500760   2.182503   1.094468   3.775137   3.775302
                   36         37         38         39         40
    36  H    0.000000
    37  H    1.760001   0.000000
    38  H    3.074390   2.517276   0.000000
    39  H    2.517275   3.074390   1.770000   0.000000
    40  H    2.508383   2.508383   1.771809   1.771810   0.000000
 Stoichiometry    C12H28
 Framework group  C1[X(C12H28)]
 Deg. of freedom   114
 Full point group                 C1      NOp   1
 Largest Abelian subgroup         C1      NOp   1
 Largest concise Abelian subgroup C1      NOp   1
                         Standard orientation:                         
 ---------------------------------------------------------------------
 Center     Atomic      Atomic             Coordinates (Angstroms)
 Number     Number       Type             X           Y           Z
 ---------------------------------------------------------------------
      1          6           0        3.180392   -0.318595    0.441224
      2          6           0        1.906458   -0.015528   -0.348224
      3          6           0        0.634407   -0.282638    0.456968
      4          1           0        3.162910   -1.368485    0.764290
      5          1           0        3.189926    0.289856    1.356152
      6          1           0        1.899997   -0.623351   -1.262076
      7          1           0        1.927064    1.033710   -0.669611
      8          1           0        0.614087    0.334412    1.361090
      9          1           0        0.586867   -1.332065    0.765260
     10          1           0       -0.264302   -0.059377   -0.126415
     11          6           0        4.460408   -0.056485   -0.350346
     12          6           0        5.734342   -0.359552    0.439102
     13          6           0        7.006393   -0.092442   -0.366089
     14          1           0        4.450874   -0.664936   -1.265273
     15          1           0        4.477890    0.993404   -0.673411
     16          1           0        5.713737   -1.408791    0.760490
     17          1           0        5.740803    0.248271    1.352954
     18          1           0        7.053933    0.956985   -0.674381
     19          1           0        7.026713   -0.709492   -1.270212
     20          1           0        7.905102   -0.315703    0.217294
     21          6           0       -3.273150    0.714681   -0.123370
     22          6           0       -3.768517    2.142184    0.110789
     23          6           0       -2.662194    3.185456   -0.048681
     24          1           0       -2.457403    0.496517    0.579414
     25          1           0       -2.843789    0.643871   -1.132344
     26          1           0       -4.198070    2.209928    1.118514
     27          1           0       -4.583309    2.356909   -0.592505
     28          1           0       -2.238922    3.146971   -1.057622
     29          1           0       -1.851496    2.999154    0.663120
     30          1           0       -3.038237    4.198848    0.123039
     31          6           0       -4.367649   -0.339600    0.032492
     32          6           0       -3.872284   -1.767105   -0.201667
     33          6           0       -4.978606   -2.810375   -0.042197
     34          1           0       -4.797012   -0.268791    1.041466
     35          1           0       -5.183398   -0.121436   -0.670291
     36          1           0       -3.057492   -1.981829    0.501628
     37          1           0       -3.442730   -1.834847   -1.209393
     38          1           0       -5.789305   -2.624074   -0.753998
     39          1           0       -5.401877   -2.771890    0.966743
     40          1           0       -4.602563   -3.823768   -0.213918
 ---------------------------------------------------------------------
 Rotational constants (GHZ):           1.1192413           0.1660657           0.1476375
 Leave Link  202 at Thu May  6 05:18:47 2021, MaxMem=   524288000 cpu:               0.1 elap:               0.1
 (Enter /opt/gaussian/g16_legacy/l301.exe)
 Standard basis: 6-31G(d) (6D, 7F)
 Ernie: Thresh=  0.10000D-02 Tol=  0.10000D-05 Strict=F.
 There are   236 symmetry adapted cartesian basis functions of A   symmetry.
 There are   236 symmetry adapted basis functions of A   symmetry.
   236 basis functions,   448 primitive gaussians,   236 cartesian basis functions
    50 alpha electrons       50 beta electrons
       nuclear repulsion energy       668.7618560059 Hartrees.
 IExCor=    0 DFT=F Ex=HF Corr=None ExCW=0 ScaHFX=  1.000000
 ScaDFX=  1.000000  1.000000  1.000000  1.000000 ScalE2=  1.000000  1.000000
 IRadAn=      5 IRanWt=     -1 IRanGd=            0 ICorTp=0 IEmpDi=  4
 NAtoms=   40 NActive=   40 NUniq=   40 SFac= 1.00D+00 NAtFMM=   60 NAOKFM=F Big=F
 Integral buffers will be    131072 words long.
 Raffenetti 1 integral format.
 Two-electron integral symmetry is turned on.
 Leave Link  301 at Thu May  6 05:18:47 2021, MaxMem=   524288000 cpu:               0.3 elap:               0.3
 (Enter /opt/gaussian/g16_legacy/l302.exe)
 NPDir=0 NMtPBC=     1 NCelOv=     1 NCel=       1 NClECP=     1 NCelD=      1
         NCelK=      1 NCelE2=     1 NClLst=     1 CellRange=     0.0.
 One-electron integrals computed using PRISM.
 One-electron integral symmetry used in STVInt
 NBasis=   236 RedAO= T EigKep=  3.11D-03  NBF=   236
 NBsUse=   236 1.00D-06 EigRej= -1.00D+00 NBFU=   236
 Leave Link  302 at Thu May  6 05:18:48 2021, MaxMem=   524288000 cpu:               1.1 elap:               1.0
 (Enter /opt/gaussian/g16_legacy/l303.exe)
 DipDrv:  MaxL=1.
 Leave Link  303 at Thu May  6 05:18:49 2021, MaxMem=   524288000 cpu:               0.1 elap:               0.1
 (Enter /opt/gaussian/g16_legacy/l401.exe)
 ExpMin= 1.61D-01 ExpMax= 3.05D+03 ExpMxC= 4.57D+02 IAcc=3 IRadAn=         5 AccDes= 0.00D+00
 Harris functional with IExCor=  205 and IRadAn=       5 diagonalized for initial guess.
 HarFok:  IExCor=  205 AccDes= 0.00D+00 IRadAn=         5 IDoV= 1 UseB2=F ITyADJ=14
 ICtDFT=  3500011 ScaDFX=  1.000000  1.000000  1.000000  1.000000
 FoFCou: FMM=F IPFlag=           0 FMFlag=      100000 FMFlg1=           0
         NFxFlg=           0 DoJE=T BraDBF=F KetDBF=T FulRan=T
         wScrn=  0.000000 ICntrl=       500 IOpCl=  0 I1Cent=   200000004 NGrid=           0
         NMat0=    1 NMatS0=      1 NMatT0=    0 NMatD0=    1 NMtDS0=    0 NMtDT0=    0
 Petite list used in FoFCou.
 Harris En= -472.099454264536    
 JPrj=0 DoOrth=F DoCkMO=F.
 Leave Link  401 at Thu May  6 05:18:57 2021, MaxMem=   524288000 cpu:              16.2 elap:               8.5
 (Enter /opt/gaussian/g16_legacy/l502.exe)
 Keep R1 ints in memory in canonical form, NReq=397720540.
 FoFCou: FMM=F IPFlag=           0 FMFlag=           0 FMFlg1=           0
         NFxFlg=           0 DoJE=F BraDBF=F KetDBF=F FulRan=T
         wScrn=  0.000000 ICntrl=       600 IOpCl=  0 I1Cent=           0 NGrid=           0
         NMat0=    1 NMatS0=  27966 NMatT0=    0 NMatD0=    1 NMtDS0=    0 NMtDT0=    0
 Symmetry not used in FoFCou.
 Two-electron integral symmetry not used.
 Closed shell SCF:
 Using DIIS extrapolation, IDIIS=  1040.
 NGot=   524288000 LenX=   133109463 LenY=   133053326
 Requested convergence on RMS density matrix=1.00D-08 within 128 cycles.
 Requested convergence on MAX density matrix=1.00D-06.
 Requested convergence on             energy=1.00D-06.
 No special actions if energy rises.

 Cycle   1  Pass 1  IDiag  1:
 E= -469.870943172242    
 DIIS: error= 5.95D-02 at cycle   1 NSaved=   1.
 NSaved= 1 IEnMin= 1 EnMin= -469.870943172242     IErMin= 1 ErrMin= 5.95D-02
 ErrMax= 5.95D-02  0.00D+00 EMaxC= 1.00D-01 BMatC= 1.07D+00 BMatP= 1.07D+00
 IDIUse=3 WtCom= 4.05D-01 WtEn= 5.95D-01
 Coeff-Com:  0.100D+01
 Coeff-En:   0.100D+01
 Coeff:      0.100D+01
 Gap=     0.643 Goal=   None    Shift=    0.000
 GapD=    0.643 DampG=2.000 DampE=0.500 DampFc=1.0000 IDamp=-1.
 RMSDP=4.72D-03 MaxDP=1.19D-01              OVMax= 1.34D-01

 Cycle   2  Pass 1  IDiag  1:
 E= -470.596112329043     Delta-E=       -0.725169156801 Rises=F Damp=F
 DIIS: error= 2.27D-02 at cycle   2 NSaved=   2.
 NSaved= 2 IEnMin= 2 EnMin= -470.596112329043     IErMin= 2 ErrMin= 2.27D-02
 ErrMax= 2.27D-02  0.00D+00 EMaxC= 1.00D-01 BMatC= 1.46D-01 BMatP= 1.07D+00
 IDIUse=3 WtCom= 7.73D-01 WtEn= 2.27D-01
 Coeff-Com:  0.219D+00 0.781D+00
 Coeff-En:   0.000D+00 0.100D+01
 Coeff:      0.169D+00 0.831D+00
 Gap=     0.688 Goal=   None    Shift=    0.000
 RMSDP=1.72D-03 MaxDP=3.34D-02 DE=-7.25D-01 OVMax= 4.88D-02

 Cycle   3  Pass 1  IDiag  1:
 E= -470.727024882731     Delta-E=       -0.130912553688 Rises=F Damp=F
 DIIS: error= 4.74D-03 at cycle   3 NSaved=   3.
 NSaved= 3 IEnMin= 3 EnMin= -470.727024882731     IErMin= 3 ErrMin= 4.74D-03
 ErrMax= 4.74D-03  0.00D+00 EMaxC= 1.00D-01 BMatC= 5.21D-03 BMatP= 1.46D-01
 IDIUse=3 WtCom= 9.53D-01 WtEn= 4.74D-02
 Coeff-Com: -0.263D-01 0.111D+00 0.915D+00
 Coeff-En:   0.000D+00 0.000D+00 0.100D+01
 Coeff:     -0.251D-01 0.106D+00 0.919D+00
 Gap=     0.656 Goal=   None    Shift=    0.000
 RMSDP=2.88D-04 MaxDP=7.63D-03 DE=-1.31D-01 OVMax= 9.82D-03

 Cycle   4  Pass 1  IDiag  1:
 E= -470.732905231390     Delta-E=       -0.005880348660 Rises=F Damp=F
 DIIS: error= 5.84D-04 at cycle   4 NSaved=   4.
 NSaved= 4 IEnMin= 4 EnMin= -470.732905231390     IErMin= 4 ErrMin= 5.84D-04
 ErrMax= 5.84D-04  0.00D+00 EMaxC= 1.00D-01 BMatC= 6.43D-05 BMatP= 5.21D-03
 IDIUse=3 WtCom= 9.94D-01 WtEn= 5.84D-03
 Coeff-Com:  0.152D-02-0.242D-01-0.962D-01 0.112D+01
 Coeff-En:   0.000D+00 0.000D+00 0.000D+00 0.100D+01
 Coeff:      0.151D-02-0.240D-01-0.956D-01 0.112D+01
 Gap=     0.657 Goal=   None    Shift=    0.000
 RMSDP=6.14D-05 MaxDP=1.07D-03 DE=-5.88D-03 OVMax= 1.80D-03

 Cycle   5  Pass 1  IDiag  1:
 E= -470.733013296446     Delta-E=       -0.000108065056 Rises=F Damp=F
 DIIS: error= 1.29D-04 at cycle   5 NSaved=   5.
 NSaved= 5 IEnMin= 5 EnMin= -470.733013296446     IErMin= 5 ErrMin= 1.29D-04
 ErrMax= 1.29D-04  0.00D+00 EMaxC= 1.00D-01 BMatC= 6.34D-06 BMatP= 6.43D-05
 IDIUse=3 WtCom= 9.99D-01 WtEn= 1.29D-03
 Coeff-Com:  0.219D-02-0.128D-01-0.824D-01 0.189D+00 0.904D+00
 Coeff-En:   0.000D+00 0.000D+00 0.000D+00 0.000D+00 0.100D+01
 Coeff:      0.218D-02-0.128D-01-0.823D-01 0.189D+00 0.904D+00
 Gap=     0.657 Goal=   None    Shift=    0.000
 RMSDP=1.58D-05 MaxDP=3.34D-04 DE=-1.08D-04 OVMax= 4.65D-04

 Cycle   6  Pass 1  IDiag  1:
 E= -470.733022221904     Delta-E=       -0.000008925458 Rises=F Damp=F
 DIIS: error= 2.42D-05 at cycle   6 NSaved=   6.
 NSaved= 6 IEnMin= 6 EnMin= -470.733022221904     IErMin= 6 ErrMin= 2.42D-05
 ErrMax= 2.42D-05  0.00D+00 EMaxC= 1.00D-01 BMatC= 1.42D-07 BMatP= 6.34D-06
 IDIUse=1 WtCom= 1.00D+00 WtEn= 0.00D+00
 Coeff-Com:  0.125D-03-0.212D-03-0.272D-02-0.333D-01 0.616D-01 0.974D+00
 Coeff:      0.125D-03-0.212D-03-0.272D-02-0.333D-01 0.616D-01 0.974D+00
 Gap=     0.657 Goal=   None    Shift=    0.000
 RMSDP=3.42D-06 MaxDP=7.20D-05 DE=-8.93D-06 OVMax= 1.02D-04

 Cycle   7  Pass 1  IDiag  1:
 E= -470.733022465786     Delta-E=       -0.000000243882 Rises=F Damp=F
 DIIS: error= 4.54D-06 at cycle   7 NSaved=   7.
 NSaved= 7 IEnMin= 7 EnMin= -470.733022465786     IErMin= 7 ErrMin= 4.54D-06
 ErrMax= 4.54D-06  0.00D+00 EMaxC= 1.00D-01 BMatC= 5.38D-09 BMatP= 1.42D-07
 IDIUse=1 WtCom= 1.00D+00 WtEn= 0.00D+00
 Coeff-Com: -0.575D-04 0.370D-03 0.246D-02-0.673D-02-0.258D-01 0.759D-02
 Coeff-Com:  0.102D+01
 Coeff:     -0.575D-04 0.370D-03 0.246D-02-0.673D-02-0.258D-01 0.759D-02
 Coeff:      0.102D+01
 Gap=     0.657 Goal=   None    Shift=    0.000
 RMSDP=7.52D-07 MaxDP=1.66D-05 DE=-2.44D-07 OVMax= 2.29D-05

 Cycle   8  Pass 1  IDiag  1:
 E= -470.733022475683     Delta-E=       -0.000000009897 Rises=F Damp=F
 DIIS: error= 2.44D-06 at cycle   8 NSaved=   8.
 NSaved= 8 IEnMin= 8 EnMin= -470.733022475683     IErMin= 8 ErrMin= 2.44D-06
 ErrMax= 2.44D-06  0.00D+00 EMaxC= 1.00D-01 BMatC= 6.24D-10 BMatP= 5.38D-09
 IDIUse=1 WtCom= 1.00D+00 WtEn= 0.00D+00
 Coeff-Com: -0.156D-04 0.625D-04 0.518D-03 0.143D-02-0.731D-02-0.683D-01
 Coeff-Com:  0.144D+00 0.930D+00
 Coeff:     -0.156D-04 0.625D-04 0.518D-03 0.143D-02-0.731D-02-0.683D-01
 Coeff:      0.144D+00 0.930D+00
 Gap=     0.657 Goal=   None    Shift=    0.000
 RMSDP=2.06D-07 MaxDP=4.88D-06 DE=-9.90D-09 OVMax= 7.80D-06

 Cycle   9  Pass 1  IDiag  1:
 E= -470.733022476748     Delta-E=       -0.000000001065 Rises=F Damp=F
 DIIS: error= 4.56D-07 at cycle   9 NSaved=   9.
 NSaved= 9 IEnMin= 9 EnMin= -470.733022476748     IErMin= 9 ErrMin= 4.56D-07
 ErrMax= 4.56D-07  0.00D+00 EMaxC= 1.00D-01 BMatC= 4.20D-11 BMatP= 6.24D-10
 IDIUse=1 WtCom= 1.00D+00 WtEn= 0.00D+00
 Coeff-Com:  0.564D-05-0.352D-04-0.240D-03 0.475D-03 0.283D-02 0.389D-02
 Coeff-Com: -0.968D-01-0.627D-01 0.115D+01
 Coeff:      0.564D-05-0.352D-04-0.240D-03 0.475D-03 0.283D-02 0.389D-02
 Coeff:     -0.968D-01-0.627D-01 0.115D+01
 Gap=     0.657 Goal=   None    Shift=    0.000
 RMSDP=7.66D-08 MaxDP=1.80D-06 DE=-1.07D-09 OVMax= 2.44D-06

 Cycle  10  Pass 1  IDiag  1:
 E= -470.733022476835     Delta-E=       -0.000000000086 Rises=F Damp=F
 DIIS: error= 1.02D-07 at cycle  10 NSaved=  10.
 NSaved=10 IEnMin=10 EnMin= -470.733022476835     IErMin=10 ErrMin= 1.02D-07
 ErrMax= 1.02D-07  0.00D+00 EMaxC= 1.00D-01 BMatC= 1.59D-12 BMatP= 4.20D-11
 IDIUse=1 WtCom= 1.00D+00 WtEn= 0.00D+00
 Coeff-Com:  0.228D-06 0.195D-06-0.481D-05-0.141D-03 0.140D-03 0.376D-02
 Coeff-Com:  0.158D-02-0.511D-01-0.110D+00 0.116D+01
 Coeff:      0.228D-06 0.195D-06-0.481D-05-0.141D-03 0.140D-03 0.376D-02
 Coeff:      0.158D-02-0.511D-01-0.110D+00 0.116D+01
 Gap=     0.657 Goal=   None    Shift=    0.000
 RMSDP=1.48D-08 MaxDP=4.05D-07 DE=-8.62D-11 OVMax= 5.55D-07

 Cycle  11  Pass 1  IDiag  1:
 E= -470.733022476856     Delta-E=       -0.000000000021 Rises=F Damp=F
 DIIS: error= 7.81D-09 at cycle  11 NSaved=  11.
 NSaved=11 IEnMin=11 EnMin= -470.733022476856     IErMin=11 ErrMin= 7.81D-09
 ErrMax= 7.81D-09  0.00D+00 EMaxC= 1.00D-01 BMatC= 4.05D-14 BMatP= 1.59D-12
 IDIUse=1 WtCom= 1.00D+00 WtEn= 0.00D+00
 Coeff-Com: -0.178D-06 0.885D-06 0.675D-05 0.209D-04-0.105D-03-0.938D-03
 Coeff-Com:  0.202D-02 0.130D-01-0.315D-03-0.280D+00 0.127D+01
 Coeff:     -0.178D-06 0.885D-06 0.675D-05 0.209D-04-0.105D-03-0.938D-03
 Coeff:      0.202D-02 0.130D-01-0.315D-03-0.280D+00 0.127D+01
 Gap=     0.657 Goal=   None    Shift=    0.000
 RMSDP=2.11D-09 MaxDP=4.55D-08 DE=-2.11D-11 OVMax= 7.32D-08

 SCF Done:  E(RHF) =  -470.733022477     A.U. after   11 cycles
            NFock= 11  Conv=0.21D-08     -V/T= 2.0011
 KE= 4.702272834796D+02 PE=-2.430686268565D+03 EE= 8.209641066031D+02
 Leave Link  502 at Thu May  6 05:19:15 2021, MaxMem=   524288000 cpu:              25.2 elap:              17.2
 (Enter /opt/gaussian/g16_legacy/l801.exe)
 ExpMin= 1.61D-01 ExpMax= 3.05D+03 ExpMxC= 4.57D+02 IAcc=3 IRadAn=         5 AccDes= 0.00D+00
 HarFok:  IExCor=  205 AccDes= 0.00D+00 IRadAn=         5 IDoV=-2 UseB2=F ITyADJ=14
 ICtDFT= 12500011 ScaDFX=  1.000000  1.000000  1.000000  1.000000
 Largest valence mixing into a core orbital is  1.98D-04
 Largest core mixing into a valence orbital is  3.29D-05
 Range of M.O.s used for correlation:    13   236
 NBasis=   236 NAE=    50 NBE=    50 NFC=    12 NFV=     0
 NROrb=    224 NOA=    38 NOB=    38 NVA=   186 NVB=   186
 Leave Link  801 at Thu May  6 05:19:16 2021, MaxMem=   524288000 cpu:               2.2 elap:               1.1
 (Enter /opt/gaussian/g16_legacy/l906.exe)
 FulOut=F Deriv=F AODrv=F NAtomX=    40
   MMem=         154  MDisk=          38 MDiskD=          38
  W3Min=     1668048 MinDsk=     1838182 NBas6D=         236
 NBas2D=       28290    NTT=       27966    LW2=     2000000
    MDV=   523960801 MDiskM=       30718 NBas2p=       18236
 Fully direct method using O(OVN) memory.
 IMap=   1   2   3   4   5   6   7   8   9  10  11  12  13  14  15  16  17  18  19  20
 IMap=  21  22  23  24  25  26  27  28  29  30  31  32  33  34  35  36  37  38
 JobTyp=1 Pass  1:  I=   1 to  38 NPSUse=  2 ParTrn=T ParDer=T DoDerP=F.
 Spin components of T(2) and E(2):
     alpha-alpha T2 =       0.6279012609D-01 E2=     -0.1842380432D+00
     alpha-beta  T2 =       0.4042472461D+00 E2=     -0.1214406304D+01
     beta-beta   T2 =       0.6279012609D-01 E2=     -0.1842380432D+00
 The integrals were generated   1 times.
 ANorm=    0.1236861956D+01
 E2 =    -0.1582882390D+01 EUMP2 =    -0.47231590486676D+03
 Leave Link  906 at Thu May  6 05:19:50 2021, MaxMem=   524288000 cpu:              66.6 elap:              33.9
 (Enter /opt/gaussian/g16_legacy/l601.exe)
 Copying SCF densities to generalized density rwf, IOpCl= 0 IROHF=0.

 **********************************************************************

            Population analysis using the SCF density.

 **********************************************************************

 Orbital symmetries:
       Occupied  (A) (A) (A) (A) (A) (A) (A) (A) (A) (A) (A) (A)
                 (A) (A) (A) (A) (A) (A) (A) (A) (A) (A) (A) (A)
                 (A) (A) (A) (A) (A) (A) (A) (A) (A) (A) (A) (A)
                 (A) (A) (A) (A) (A) (A) (A) (A) (A) (A) (A) (A)
                 (A) (A)
       Virtual   (A) (A) (A) (A) (A) (A) (A) (A) (A) (A) (A) (A)
                 (A) (A) (A) (A) (A) (A) (A) (A) (A) (A) (A) (A)
                 (A) (A) (A) (A) (A) (A) (A) (A) (A) (A) (A) (A)
                 (A) (A) (A) (A) (A) (A) (A) (A) (A) (A) (A) (A)
                 (A) (A) (A) (A) (A) (A) (A) (A) (A) (A) (A) (A)
                 (A) (A) (A) (A) (A) (A) (A) (A) (A) (A) (A) (A)
                 (A) (A) (A) (A) (A) (A) (A) (A) (A) (A) (A) (A)
                 (A) (A) (A) (A) (A) (A) (A) (A) (A) (A) (A) (A)
                 (A) (A) (A) (A) (A) (A) (A) (A) (A) (A) (A) (A)
                 (A) (A) (A) (A) (A) (A) (A) (A) (A) (A) (A) (A)
                 (A) (A) (A) (A) (A) (A) (A) (A) (A) (A) (A) (A)
                 (A) (A) (A) (A) (A) (A) (A) (A) (A) (A) (A) (A)
                 (A) (A) (A) (A) (A) (A) (A) (A) (A) (A) (A) (A)
                 (A) (A) (A) (A) (A) (A) (A) (A) (A) (A) (A) (A)
                 (A) (A) (A) (A) (A) (A) (A) (A) (A) (A) (A) (A)
                 (A) (A) (A) (A) (A) (A)
 The electronic state is 1-A.
 Alpha  occ. eigenvalues --  -11.21588 -11.21585 -11.21576 -11.21559 -11.21378
 Alpha  occ. eigenvalues --  -11.21375 -11.21318 -11.21311 -11.21064 -11.21058
 Alpha  occ. eigenvalues --  -11.21055 -11.20973  -1.08425  -1.08393  -1.03520
 Alpha  occ. eigenvalues --   -1.03491  -0.95989  -0.95926  -0.87017  -0.86937
 Alpha  occ. eigenvalues --   -0.79616  -0.79539  -0.78262  -0.78188  -0.65054
 Alpha  occ. eigenvalues --   -0.65027  -0.60933  -0.60874  -0.59409  -0.59266
 Alpha  occ. eigenvalues --   -0.57664  -0.57474  -0.55258  -0.55232  -0.52806
 Alpha  occ. eigenvalues --   -0.52624  -0.52411  -0.52257  -0.49916  -0.49883
 Alpha  occ. eigenvalues --   -0.47951  -0.47827  -0.46648  -0.46557  -0.45780
 Alpha  occ. eigenvalues --   -0.45769  -0.45699  -0.45668  -0.43781  -0.43627
 Alpha virt. eigenvalues --    0.22051   0.23054   0.23843   0.24680   0.25982
 Alpha virt. eigenvalues --    0.26458   0.26669   0.27594   0.27891   0.29264
 Alpha virt. eigenvalues --    0.30680   0.31260   0.31609   0.31921   0.32120
 Alpha virt. eigenvalues --    0.32496   0.33466   0.33882   0.34207   0.34409
 Alpha virt. eigenvalues --    0.34540   0.34810   0.35856   0.35918   0.36376
 Alpha virt. eigenvalues --    0.36452   0.36775   0.37107   0.39416   0.39968
 Alpha virt. eigenvalues --    0.40944   0.41536   0.44971   0.45656   0.46113
 Alpha virt. eigenvalues --    0.47264   0.48094   0.48513   0.68379   0.69275
 Alpha virt. eigenvalues --    0.69732   0.70815   0.71449   0.74007   0.75078
 Alpha virt. eigenvalues --    0.75349   0.76469   0.76596   0.78043   0.78120
 Alpha virt. eigenvalues --    0.80518   0.81355   0.83840   0.84888   0.86721
 Alpha virt. eigenvalues --    0.87287   0.88005   0.88566   0.95778   0.96203
 Alpha virt. eigenvalues --    0.96232   0.96669   0.98379   0.98673   1.01506
 Alpha virt. eigenvalues --    1.01913   1.04913   1.05596   1.07259   1.08234
 Alpha virt. eigenvalues --    1.10788   1.11040   1.11652   1.13276   1.15152
 Alpha virt. eigenvalues --    1.16133   1.16667   1.17021   1.17321   1.18439
 Alpha virt. eigenvalues --    1.18764   1.19254   1.19576   1.20465   1.20695
 Alpha virt. eigenvalues --    1.20859   1.21104   1.21150   1.21591   1.21734
 Alpha virt. eigenvalues --    1.21814   1.22188   1.22539   1.23106   1.23595
 Alpha virt. eigenvalues --    1.24462   1.25607   1.25838   1.26980   1.27186
 Alpha virt. eigenvalues --    1.30146   1.33963   1.40209   1.41040   1.55614
 Alpha virt. eigenvalues --    1.55662   1.65885   1.66224   1.67327   1.67409
 Alpha virt. eigenvalues --    1.70777   1.71503   1.72794   1.73471   1.79408
 Alpha virt. eigenvalues --    1.79884   1.81202   1.81818   1.92712   1.92871
 Alpha virt. eigenvalues --    2.05177   2.05319   2.13165   2.13253   2.14783
 Alpha virt. eigenvalues --    2.15342   2.17781   2.17961   2.22459   2.22561
 Alpha virt. eigenvalues --    2.25582   2.25768   2.25843   2.27203   2.27702
 Alpha virt. eigenvalues --    2.28297   2.32758   2.33244   2.33951   2.34181
 Alpha virt. eigenvalues --    2.35973   2.36983   2.39625   2.40162   2.43094
 Alpha virt. eigenvalues --    2.43186   2.56739   2.56796   2.56864   2.57152
 Alpha virt. eigenvalues --    2.59617   2.59775   2.66861   2.66986   2.67653
 Alpha virt. eigenvalues --    2.67731   2.67754   2.67987   2.76932   2.77006
 Alpha virt. eigenvalues --    2.77483   2.77693   2.79961   2.80047   2.91351
 Alpha virt. eigenvalues --    2.91963   2.94884   2.96723   2.98738   2.99403
 Alpha virt. eigenvalues --    3.13710   3.14053   3.18617   3.18787   4.55362
 Alpha virt. eigenvalues --    4.56154   4.62234   4.62836   4.72142   4.72369
 Alpha virt. eigenvalues --    4.79553   4.80284   4.87711   4.88225   4.99882
 Alpha virt. eigenvalues --    5.00096
          Condensed to atoms (all electrons):
               1          2          3          4          5          6
     1  C    5.084918   0.351577  -0.057201   0.396094   0.396058  -0.043614
     2  C    0.351577   5.061815   0.338830  -0.041815  -0.041822   0.398947
     3  C   -0.057201   0.338830   5.106956  -0.002851  -0.002897  -0.039695
     4  H    0.396094  -0.041815  -0.002851   0.566991  -0.031538  -0.002980
     5  H    0.396058  -0.041822  -0.002897  -0.031538   0.567309   0.004574
     6  H   -0.043614   0.398947  -0.039695  -0.002980   0.004574   0.564601
     7  H   -0.043676   0.399195  -0.039907   0.004566  -0.002988  -0.031648
     8  H   -0.003781  -0.039144   0.391431   0.000158   0.002626   0.004235
     9  H   -0.003874  -0.038593   0.390345   0.002627   0.000159  -0.002896
    10  H    0.004282  -0.034838   0.394901  -0.000059  -0.000056  -0.002587
    11  C    0.355465  -0.051840   0.004047  -0.041661  -0.041736  -0.003211
    12  C   -0.051937   0.003975  -0.000085  -0.003258  -0.003264  -0.000065
    13  C    0.004075  -0.000085   0.000001  -0.000052  -0.000052  -0.000000
    14  H   -0.041713  -0.003254  -0.000054  -0.002807   0.004474   0.002411
    15  H   -0.041637  -0.003245  -0.000052   0.004464  -0.002808   0.000237
    16  H   -0.003193  -0.000065  -0.000000   0.002405   0.000237   0.000017
    17  H   -0.003198  -0.000065  -0.000000   0.000237   0.002410  -0.000003
    18  H   -0.000070  -0.000001  -0.000000  -0.000001   0.000013   0.000000
    19  H   -0.000070  -0.000001  -0.000000   0.000013  -0.000001  -0.000002
    20  H   -0.000087   0.000001  -0.000000   0.000001   0.000001   0.000000
    21  C   -0.000000   0.000023  -0.000844  -0.000000  -0.000000  -0.000001
    22  C    0.000000  -0.000000   0.000026  -0.000000   0.000000  -0.000000
    23  C    0.000000  -0.000002  -0.000018  -0.000000  -0.000000  -0.000000
    24  H   -0.000000   0.000005  -0.000395   0.000000  -0.000000   0.000002
    25  H   -0.000000   0.000001  -0.000166   0.000000   0.000000   0.000000
    26  H   -0.000000   0.000000  -0.000002  -0.000000   0.000000   0.000000
    27  H   -0.000000   0.000000  -0.000000  -0.000000  -0.000000  -0.000000
    28  H   -0.000000   0.000000  -0.000008   0.000000  -0.000000  -0.000000
    29  H   -0.000000  -0.000006   0.000058   0.000000  -0.000000   0.000000
    30  H    0.000000   0.000000   0.000000   0.000000   0.000000   0.000000
    31  C    0.000000  -0.000000   0.000030   0.000000   0.000000   0.000000
    32  C   -0.000000   0.000001  -0.000018  -0.000000   0.000000   0.000000
    33  C    0.000000  -0.000000   0.000001   0.000000  -0.000000  -0.000000
    34  H   -0.000000   0.000000  -0.000002   0.000000   0.000000   0.000000
    35  H   -0.000000   0.000000  -0.000000  -0.000000  -0.000000  -0.000000
    36  H    0.000000  -0.000000   0.000075  -0.000000   0.000000  -0.000000
    37  H   -0.000000  -0.000000  -0.000009  -0.000000   0.000000   0.000000
    38  H   -0.000000   0.000000  -0.000000  -0.000000   0.000000   0.000000
    39  H   -0.000000   0.000000  -0.000000  -0.000000   0.000000   0.000000
    40  H   -0.000000  -0.000000  -0.000000   0.000000  -0.000000  -0.000000
               7          8          9         10         11         12
     1  C   -0.043676  -0.003781  -0.003874   0.004282   0.355465  -0.051937
     2  C    0.399195  -0.039144  -0.038593  -0.034838  -0.051840   0.003975
     3  C   -0.039907   0.391431   0.390345   0.394901   0.004047  -0.000085
     4  H    0.004566   0.000158   0.002627  -0.000059  -0.041661  -0.003258
     5  H   -0.002988   0.002626   0.000159  -0.000056  -0.041736  -0.003264
     6  H   -0.031648   0.004235  -0.002896  -0.002587  -0.003211  -0.000065
     7  H    0.564131  -0.002892   0.004224  -0.002486  -0.003191  -0.000065
     8  H   -0.002892   0.551202  -0.029279  -0.028199  -0.000069  -0.000001
     9  H    0.004224  -0.029279   0.549917  -0.027132  -0.000069  -0.000001
    10  H   -0.002486  -0.028199  -0.027132   0.525910  -0.000081   0.000001
    11  C   -0.003191  -0.000069  -0.000069  -0.000081   5.083911   0.352291
    12  C   -0.000065  -0.000001  -0.000001   0.000001   0.352291   5.060438
    13  C   -0.000000  -0.000000  -0.000000  -0.000000  -0.057363   0.340682
    14  H    0.000236  -0.000001   0.000013   0.000001   0.396090  -0.041884
    15  H    0.002404   0.000013  -0.000001   0.000001   0.396114  -0.041824
    16  H   -0.000003   0.000000  -0.000002   0.000000  -0.043633   0.399118
    17  H    0.000017  -0.000002   0.000000   0.000000  -0.043652   0.399106
    18  H   -0.000002   0.000000  -0.000000  -0.000000  -0.003795  -0.038896
    19  H    0.000000  -0.000000   0.000000  -0.000000  -0.003794  -0.038899
    20  H    0.000000  -0.000000  -0.000000   0.000000   0.004401  -0.035846
    21  C    0.000001  -0.000016   0.000039  -0.000216   0.000000  -0.000000
    22  C   -0.000000  -0.000005  -0.000000  -0.000056  -0.000000   0.000000
    23  C    0.000003  -0.000006   0.000001   0.000074   0.000000  -0.000000
    24  H    0.000003   0.000326   0.000052  -0.000073  -0.000000   0.000000
    25  H    0.000000  -0.000002   0.000001   0.000823  -0.000000   0.000000
    26  H    0.000000  -0.000000   0.000000   0.000006   0.000000  -0.000000
    27  H    0.000000   0.000000   0.000000  -0.000001   0.000000  -0.000000
    28  H    0.000002  -0.000001   0.000000   0.000043  -0.000000   0.000000
    29  H    0.000005   0.000104  -0.000000   0.000054  -0.000000   0.000000
    30  H   -0.000000  -0.000000  -0.000000  -0.000001  -0.000000   0.000000
    31  C   -0.000000   0.000000  -0.000005  -0.000061  -0.000000   0.000000
    32  C   -0.000000   0.000001  -0.000005   0.000081   0.000000  -0.000000
    33  C    0.000000  -0.000000  -0.000000  -0.000000  -0.000000   0.000000
    34  H    0.000000   0.000000   0.000000   0.000006   0.000000  -0.000000
    35  H    0.000000   0.000000   0.000000  -0.000001   0.000000  -0.000000
    36  H    0.000000  -0.000003   0.000110   0.000088  -0.000000   0.000000
    37  H   -0.000000   0.000000   0.000000   0.000058  -0.000000   0.000000
    38  H   -0.000000   0.000000   0.000000   0.000000   0.000000  -0.000000
    39  H   -0.000000   0.000000  -0.000000   0.000000   0.000000  -0.000000
    40  H    0.000000  -0.000000  -0.000000   0.000000  -0.000000   0.000000
              13         14         15         16         17         18
     1  C    0.004075  -0.041713  -0.041637  -0.003193  -0.003198  -0.000070
     2  C   -0.000085  -0.003254  -0.003245  -0.000065  -0.000065  -0.000001
     3  C    0.000001  -0.000054  -0.000052  -0.000000  -0.000000  -0.000000
     4  H   -0.000052  -0.002807   0.004464   0.002405   0.000237  -0.000001
     5  H   -0.000052   0.004474  -0.002808   0.000237   0.002410   0.000013
     6  H   -0.000000   0.002411   0.000237   0.000017  -0.000003   0.000000
     7  H   -0.000000   0.000236   0.002404  -0.000003   0.000017  -0.000002
     8  H   -0.000000  -0.000001   0.000013   0.000000  -0.000002   0.000000
     9  H   -0.000000   0.000013  -0.000001  -0.000002   0.000000  -0.000000
    10  H   -0.000000   0.000001   0.000001   0.000000   0.000000  -0.000000
    11  C   -0.057363   0.396090   0.396114  -0.043633  -0.043652  -0.003795
    12  C    0.340682  -0.041884  -0.041824   0.399118   0.399106  -0.038896
    13  C    5.097354  -0.002867  -0.002859  -0.039895  -0.039897   0.391275
    14  H   -0.002867   0.567128  -0.031519  -0.002989   0.004573   0.000158
    15  H   -0.002859  -0.031519   0.566762   0.004567  -0.002976   0.002624
    16  H   -0.039895  -0.002989   0.004567   0.564404  -0.031662   0.004221
    17  H   -0.039897   0.004573  -0.002976  -0.031662   0.564418  -0.002892
    18  H    0.391275   0.000158   0.002624   0.004221  -0.002892   0.548836
    19  H    0.391268   0.002627   0.000158  -0.002893   0.004221  -0.029146
    20  H    0.394098  -0.000059  -0.000059  -0.002506  -0.002506  -0.027499
    21  C    0.000000   0.000000  -0.000000   0.000000   0.000000   0.000000
    22  C   -0.000000   0.000000   0.000000  -0.000000  -0.000000  -0.000000
    23  C    0.000000  -0.000000  -0.000000   0.000000   0.000000   0.000000
    24  H   -0.000000  -0.000000   0.000000   0.000000  -0.000000  -0.000000
    25  H   -0.000000   0.000000  -0.000000   0.000000   0.000000   0.000000
    26  H    0.000000  -0.000000  -0.000000  -0.000000  -0.000000   0.000000
    27  H    0.000000  -0.000000  -0.000000   0.000000   0.000000   0.000000
    28  H   -0.000000  -0.000000   0.000000   0.000000  -0.000000   0.000000
    29  H   -0.000000  -0.000000   0.000000   0.000000  -0.000000   0.000000
    30  H   -0.000000   0.000000   0.000000  -0.000000   0.000000  -0.000000
    31  C   -0.000000  -0.000000   0.000000   0.000000  -0.000000   0.000000
    32  C    0.000000  -0.000000  -0.000000   0.000000   0.000000  -0.000000
    33  C    0.000000   0.000000   0.000000  -0.000000  -0.000000   0.000000
    34  H    0.000000  -0.000000  -0.000000  -0.000000  -0.000000   0.000000
    35  H    0.000000  -0.000000  -0.000000   0.000000   0.000000  -0.000000
    36  H   -0.000000   0.000000  -0.000000  -0.000000   0.000000  -0.000000
    37  H   -0.000000   0.000000  -0.000000  -0.000000   0.000000   0.000000
    38  H    0.000000  -0.000000  -0.000000   0.000000   0.000000   0.000000
    39  H    0.000000   0.000000  -0.000000  -0.000000   0.000000   0.000000
    40  H   -0.000000  -0.000000   0.000000   0.000000  -0.000000   0.000000
              19         20         21         22         23         24
     1  C   -0.000070  -0.000087  -0.000000   0.000000   0.000000  -0.000000
     2  C   -0.000001   0.000001   0.000023  -0.000000  -0.000002   0.000005
     3  C   -0.000000  -0.000000  -0.000844   0.000026  -0.000018  -0.000395
     4  H    0.000013   0.000001  -0.000000  -0.000000  -0.000000   0.000000
     5  H   -0.000001   0.000001  -0.000000   0.000000  -0.000000  -0.000000
     6  H   -0.000002   0.000000  -0.000001  -0.000000  -0.000000   0.000002
     7  H    0.000000   0.000000   0.000001  -0.000000   0.000003   0.000003
     8  H   -0.000000  -0.000000  -0.000016  -0.000005  -0.000006   0.000326
     9  H    0.000000  -0.000000   0.000039  -0.000000   0.000001   0.000052
    10  H   -0.000000   0.000000  -0.000216  -0.000056   0.000074  -0.000073
    11  C   -0.003794   0.004401   0.000000  -0.000000   0.000000  -0.000000
    12  C   -0.038899  -0.035846  -0.000000   0.000000  -0.000000   0.000000
    13  C    0.391268   0.394098   0.000000  -0.000000   0.000000  -0.000000
    14  H    0.002627  -0.000059   0.000000   0.000000  -0.000000  -0.000000
    15  H    0.000158  -0.000059  -0.000000   0.000000  -0.000000   0.000000
    16  H   -0.002893  -0.002506   0.000000  -0.000000   0.000000   0.000000
    17  H    0.004221  -0.002506   0.000000  -0.000000   0.000000  -0.000000
    18  H   -0.029146  -0.027499   0.000000  -0.000000   0.000000  -0.000000
    19  H    0.548875  -0.027502   0.000000  -0.000000  -0.000000  -0.000000
    20  H   -0.027502   0.537381  -0.000000   0.000000  -0.000000   0.000000
    21  C    0.000000  -0.000000   5.089488   0.350991  -0.057322   0.397756
    22  C   -0.000000   0.000000   0.350991   5.061002   0.340542  -0.040810
    23  C   -0.000000  -0.000000  -0.057322   0.340542   5.098260  -0.002932
    24  H   -0.000000   0.000000   0.397756  -0.040810  -0.002932   0.557729
    25  H    0.000000  -0.000000   0.397115  -0.042110  -0.002863  -0.033122
    26  H    0.000000  -0.000000  -0.043023   0.398661  -0.039902  -0.003193
    27  H   -0.000000   0.000000  -0.043467   0.398991  -0.039969   0.004468
    28  H    0.000000  -0.000000  -0.003704  -0.038975   0.391215   0.000104
    29  H   -0.000000   0.000000  -0.003650  -0.038887   0.391300   0.002393
    30  H    0.000000   0.000000   0.004357  -0.035842   0.394108  -0.000043
    31  C   -0.000000   0.000000   0.354210  -0.051553   0.004073  -0.040669
    32  C    0.000000  -0.000000  -0.051929   0.003982  -0.000085  -0.003294
    33  C   -0.000000   0.000000   0.004033  -0.000083   0.000001  -0.000038
    34  H    0.000000   0.000000  -0.041087  -0.003396  -0.000052  -0.003024
    35  H   -0.000000   0.000000  -0.041452  -0.003325  -0.000053   0.004358
    36  H   -0.000000   0.000000  -0.002994  -0.000066  -0.000000   0.002097
    37  H    0.000000   0.000000  -0.003106  -0.000070  -0.000000   0.000177
    38  H    0.000000   0.000000  -0.000067  -0.000001  -0.000000  -0.000002
    39  H    0.000000   0.000000  -0.000066  -0.000001  -0.000000   0.000012
    40  H   -0.000000   0.000000  -0.000087   0.000001  -0.000000   0.000001
              25         26         27         28         29         30
     1  C   -0.000000  -0.000000  -0.000000  -0.000000  -0.000000   0.000000
     2  C    0.000001   0.000000   0.000000   0.000000  -0.000006   0.000000
     3  C   -0.000166  -0.000002  -0.000000  -0.000008   0.000058   0.000000
     4  H    0.000000  -0.000000  -0.000000   0.000000   0.000000   0.000000
     5  H    0.000000   0.000000  -0.000000  -0.000000  -0.000000   0.000000
     6  H    0.000000   0.000000  -0.000000  -0.000000   0.000000   0.000000
     7  H    0.000000   0.000000   0.000000   0.000002   0.000005  -0.000000
     8  H   -0.000002  -0.000000   0.000000  -0.000001   0.000104  -0.000000
     9  H    0.000001   0.000000   0.000000   0.000000  -0.000000  -0.000000
    10  H    0.000823   0.000006  -0.000001   0.000043   0.000054  -0.000001
    11  C   -0.000000   0.000000   0.000000  -0.000000  -0.000000  -0.000000
    12  C    0.000000  -0.000000  -0.000000   0.000000   0.000000   0.000000
    13  C   -0.000000   0.000000   0.000000  -0.000000  -0.000000  -0.000000
    14  H    0.000000  -0.000000  -0.000000  -0.000000  -0.000000   0.000000
    15  H   -0.000000  -0.000000  -0.000000   0.000000   0.000000   0.000000
    16  H    0.000000  -0.000000   0.000000   0.000000   0.000000  -0.000000
    17  H    0.000000  -0.000000   0.000000  -0.000000  -0.000000   0.000000
    18  H    0.000000   0.000000   0.000000   0.000000   0.000000  -0.000000
    19  H    0.000000   0.000000  -0.000000   0.000000  -0.000000   0.000000
    20  H   -0.000000  -0.000000   0.000000  -0.000000   0.000000   0.000000
    21  C    0.397115  -0.043023  -0.043467  -0.003704  -0.003650   0.004357
    22  C   -0.042110   0.398661   0.398991  -0.038975  -0.038887  -0.035842
    23  C   -0.002863  -0.039902  -0.039969   0.391215   0.391300   0.394108
    24  H   -0.033122  -0.003193   0.004468   0.000104   0.002393  -0.000043
    25  H    0.568474   0.004580  -0.003022   0.002616   0.000151  -0.000056
    26  H    0.004580   0.564480  -0.031570   0.004226  -0.002880  -0.002515
    27  H   -0.003022  -0.031570   0.564686  -0.002881   0.004208  -0.002530
    28  H    0.002616   0.004226  -0.002881   0.549136  -0.029141  -0.027492
    29  H    0.000151  -0.002880   0.004208  -0.029141   0.548029  -0.027438
    30  H   -0.000056  -0.002515  -0.002530  -0.027492  -0.027438   0.537282
    31  C   -0.041918  -0.003324  -0.003263  -0.000074  -0.000071  -0.000085
    32  C   -0.003254  -0.000064  -0.000066  -0.000000  -0.000000   0.000001
    33  C   -0.000050  -0.000001  -0.000001  -0.000000  -0.000000  -0.000000
    34  H    0.004479   0.002430   0.000248  -0.000001   0.000013   0.000001
    35  H   -0.002843   0.000248   0.002430   0.000013  -0.000001   0.000001
    36  H    0.000224   0.000017  -0.000003   0.000000  -0.000002   0.000000
    37  H    0.002398  -0.000003   0.000017  -0.000002   0.000000   0.000000
    38  H    0.000013   0.000000  -0.000002   0.000000  -0.000000  -0.000000
    39  H   -0.000001  -0.000002   0.000000  -0.000000   0.000000  -0.000000
    40  H    0.000001   0.000000   0.000000  -0.000000  -0.000000   0.000000
              31         32         33         34         35         36
     1  C    0.000000  -0.000000   0.000000  -0.000000  -0.000000   0.000000
     2  C   -0.000000   0.000001  -0.000000   0.000000   0.000000  -0.000000
     3  C    0.000030  -0.000018   0.000001  -0.000002  -0.000000   0.000075
     4  H    0.000000  -0.000000   0.000000   0.000000  -0.000000  -0.000000
     5  H    0.000000   0.000000  -0.000000   0.000000  -0.000000   0.000000
     6  H    0.000000   0.000000  -0.000000   0.000000  -0.000000  -0.000000
     7  H   -0.000000  -0.000000   0.000000   0.000000   0.000000   0.000000
     8  H    0.000000   0.000001  -0.000000   0.000000   0.000000  -0.000003
     9  H   -0.000005  -0.000005  -0.000000   0.000000   0.000000   0.000110
    10  H   -0.000061   0.000081  -0.000000   0.000006  -0.000001   0.000088
    11  C   -0.000000   0.000000  -0.000000   0.000000   0.000000  -0.000000
    12  C    0.000000  -0.000000   0.000000  -0.000000  -0.000000   0.000000
    13  C   -0.000000   0.000000   0.000000   0.000000   0.000000  -0.000000
    14  H   -0.000000  -0.000000   0.000000  -0.000000  -0.000000   0.000000
    15  H    0.000000  -0.000000   0.000000  -0.000000  -0.000000  -0.000000
    16  H    0.000000   0.000000  -0.000000  -0.000000   0.000000  -0.000000
    17  H   -0.000000   0.000000  -0.000000  -0.000000   0.000000   0.000000
    18  H    0.000000  -0.000000   0.000000   0.000000  -0.000000  -0.000000
    19  H   -0.000000   0.000000  -0.000000   0.000000  -0.000000  -0.000000
    20  H    0.000000  -0.000000   0.000000   0.000000   0.000000   0.000000
    21  C    0.354210  -0.051929   0.004033  -0.041087  -0.041452  -0.002994
    22  C   -0.051553   0.003982  -0.000083  -0.003396  -0.003325  -0.000066
    23  C    0.004073  -0.000085   0.000001  -0.000052  -0.000053  -0.000000
    24  H   -0.040669  -0.003294  -0.000038  -0.003024   0.004358   0.002097
    25  H   -0.041918  -0.003254  -0.000050   0.004479  -0.002843   0.000224
    26  H   -0.003324  -0.000064  -0.000001   0.002430   0.000248   0.000017
    27  H   -0.003263  -0.000066  -0.000001   0.000248   0.002430  -0.000003
    28  H   -0.000074  -0.000000  -0.000000  -0.000001   0.000013   0.000000
    29  H   -0.000071  -0.000000  -0.000000   0.000013  -0.000001  -0.000002
    30  H   -0.000085   0.000001  -0.000000   0.000001   0.000001   0.000000
    31  C    5.084547   0.352120  -0.057356   0.395636   0.395920  -0.043598
    32  C    0.352120   5.061640   0.340532  -0.041861  -0.041875   0.399255
    33  C   -0.057356   0.340532   5.097344  -0.002885  -0.002899  -0.039754
    34  H    0.395636  -0.041861  -0.002885   0.567172  -0.031436  -0.002977
    35  H    0.395920  -0.041875  -0.002899  -0.031436   0.567230   0.004548
    36  H   -0.043598   0.399255  -0.039754  -0.002977   0.004548   0.562585
    37  H   -0.043760   0.399017  -0.039871   0.004579  -0.002964  -0.031613
    38  H   -0.003786  -0.038923   0.391266   0.000161   0.002631   0.004208
    39  H   -0.003794  -0.038921   0.391287   0.002633   0.000162  -0.002890
    40  H    0.004401  -0.035835   0.394103  -0.000059  -0.000059  -0.002506
              37         38         39         40
     1  C   -0.000000  -0.000000  -0.000000  -0.000000
     2  C   -0.000000   0.000000   0.000000  -0.000000
     3  C   -0.000009  -0.000000  -0.000000  -0.000000
     4  H   -0.000000  -0.000000  -0.000000   0.000000
     5  H    0.000000   0.000000   0.000000  -0.000000
     6  H    0.000000   0.000000   0.000000  -0.000000
     7  H   -0.000000  -0.000000  -0.000000   0.000000
     8  H    0.000000   0.000000   0.000000  -0.000000
     9  H    0.000000   0.000000  -0.000000  -0.000000
    10  H    0.000058   0.000000   0.000000   0.000000
    11  C   -0.000000   0.000000   0.000000  -0.000000
    12  C    0.000000  -0.000000  -0.000000   0.000000
    13  C   -0.000000   0.000000   0.000000  -0.000000
    14  H    0.000000  -0.000000   0.000000  -0.000000
    15  H   -0.000000  -0.000000  -0.000000   0.000000
    16  H   -0.000000   0.000000  -0.000000   0.000000
    17  H    0.000000   0.000000   0.000000  -0.000000
    18  H    0.000000   0.000000   0.000000   0.000000
    19  H    0.000000   0.000000   0.000000  -0.000000
    20  H    0.000000   0.000000   0.000000   0.000000
    21  C   -0.003106  -0.000067  -0.000066  -0.000087
    22  C   -0.000070  -0.000001  -0.000001   0.000001
    23  C   -0.000000  -0.000000  -0.000000  -0.000000
    24  H    0.000177  -0.000002   0.000012   0.000001
    25  H    0.002398   0.000013  -0.000001   0.000001
    26  H   -0.000003   0.000000  -0.000002   0.000000
    27  H    0.000017  -0.000002   0.000000   0.000000
    28  H   -0.000002   0.000000  -0.000000  -0.000000
    29  H    0.000000  -0.000000   0.000000  -0.000000
    30  H    0.000000  -0.000000  -0.000000   0.000000
    31  C   -0.043760  -0.003786  -0.003794   0.004401
    32  C    0.399017  -0.038923  -0.038921  -0.035835
    33  C   -0.039871   0.391266   0.391287   0.394103
    34  H    0.004579   0.000161   0.002633  -0.000059
    35  H   -0.002964   0.002631   0.000162  -0.000059
    36  H   -0.031613   0.004208  -0.002890  -0.002506
    37  H    0.564781  -0.002891   0.004224  -0.002513
    38  H   -0.002891   0.548969  -0.029150  -0.027515
    39  H    0.004224  -0.029150   0.548836  -0.027503
    40  H   -0.002513  -0.027515  -0.027503   0.537410
 Mulliken charges:
               1
     1  C   -0.298417
     2  C   -0.299593
     3  C   -0.482497
     4  H    0.149465
     5  H    0.149303
     6  H    0.151679
     7  H    0.152069
     8  H    0.153304
     9  H    0.154370
    10  H    0.169518
    11  C   -0.298225
    12  C   -0.299586
    13  C   -0.475682
    14  H    0.149434
    15  H    0.149638
    16  H    0.151871
    17  H    0.151869
    18  H    0.155172
    19  H    0.155144
    20  H    0.160182
    21  C   -0.304982
    22  C   -0.299018
    23  C   -0.476372
    24  H    0.158112
    25  H    0.148533
    26  H    0.151830
    27  H    0.151726
    28  H    0.154923
    29  H    0.155761
    30  H    0.160252
    31  C   -0.297617
    32  C   -0.300499
    33  C   -0.475627
    34  H    0.149421
    35  H    0.149368
    36  H    0.153198
    37  H    0.151551
    38  H    0.155089
    39  H    0.155173
    40  H    0.160160
 Sum of Mulliken charges =  -0.00000
 Mulliken charges with hydrogens summed into heavy atoms:
               1
     1  C    0.000351
     2  C    0.004155
     3  C   -0.005305
    11  C    0.000847
    12  C    0.004154
    13  C   -0.005183
    21  C    0.001663
    22  C    0.004539
    23  C   -0.005437
    31  C    0.001171
    32  C    0.004249
    33  C   -0.005204
 Electronic spatial extent (au):  <R**2>=           7496.4739
 Charge=             -0.0000 electrons
 Dipole moment (field-independent basis, Debye):
    X=             -0.0241    Y=              0.0021    Z=              0.0031  Tot=              0.0244
 Quadrupole moment (field-independent basis, Debye-Ang):
   XX=            -86.3710   YY=            -84.6526   ZZ=            -83.8970
   XY=             -0.7349   XZ=              0.6775   YZ=              0.3984
 Traceless Quadrupole moment (field-independent basis, Debye-Ang):
   XX=             -1.3975   YY=              0.3209   ZZ=              1.0766
   XY=             -0.7349   XZ=              0.6775   YZ=              0.3984
 Octapole moment (field-independent basis, Debye-Ang**2):
  XXX=             -6.8630  YYY=             -0.9757  ZZZ=             -0.1543  XYY=              6.3428
  XXY=              3.8826  XXZ=              1.4826  XZZ=             -4.2267  YZZ=              0.2484
  YYZ=             -0.0502  XYZ=              1.6056
 Hexadecapole moment (field-independent basis, Debye-Ang**3):
 XXXX=          -9197.2425 YYYY=          -1371.9767 ZZZZ=           -226.2900 XXXY=            -38.9415
 XXXZ=             51.9514 YYYX=            -14.5852 YYYZ=              1.6495 ZZZX=             -1.4819
 ZZZY=              3.0311 XXYY=          -1739.8124 XXZZ=          -1529.4682 YYZZ=           -264.9009
 XXYZ=              5.2437 YYXZ=             -1.3302 ZZXY=             -0.4836
 N-N= 6.687618560059D+02 E-N=-2.430686268628D+03  KE= 4.702272834796D+02
 Leave Link  601 at Thu May  6 05:19:51 2021, MaxMem=   524288000 cpu:               0.6 elap:               0.8
 (Enter /opt/gaussian/g16_legacy/l9999.exe)
 1\1\GINC-TRUENO91\SP\RMP2-FC\6-31G(d)\C12H28\JRAMOS\06-May-2021\0\\#p 
 6-31g* mp2\\Input file generated by CHIRIPA (05-May-2021 14:51:09)\\0,
 1\C,0,-0.666,-0.374,0.\C,0,-1.882,0.553,0.\C,0,-3.207,-0.21,0.\H,0,-0.
 713,-1.03,-0.88\H,0,-0.713,-1.029,0.881\H,0,-1.832,1.207,-0.88\H,0,-1.
 832,1.207,0.88\H,0,-3.283,-0.85,0.885\H,0,-3.283,-0.85,-0.885\H,0,-4.0
 63,0.472,0.\C,0,0.666,0.374,0.\C,0,1.882,-0.553,0.\C,0,3.207,0.21,0.\H
 ,0,0.713,1.029,-0.881\H,0,0.713,1.03,0.88\H,0,1.832,-1.207,-0.88\H,0,1
 .832,-1.207,0.88\H,0,3.283,0.85,0.885\H,0,3.283,0.85,-0.885\H,0,4.063,
 -0.472,0.\C,0,-7.059363,0.92689,0.683538\C,0,-7.558415,1.220298,2.0987
 56\C,0,-6.43602,1.649128,3.044341\H,0,-6.294077,0.139889,0.727255\H,0,
 -6.564094,1.822619,0.283824\H,0,-8.053815,0.324721,2.49516\H,0,-8.3227
 4,2.006557,2.051644\H,0,-5.946584,2.556115,2.674979\H,0,-5.676132,0.86
 4722,3.121015\H,0,-6.814991,1.85386,4.050485\C,0,-8.169804,0.496966,-0
 .273445\C,0,-7.670753,0.203557,-1.688664\C,0,-8.793147,-0.225272,-2.63
 4248\H,0,-8.665074,-0.398764,0.126269\H,0,-8.935091,1.283966,-0.317162
 \H,0,-6.906428,-0.582702,-1.641551\H,0,-7.175352,1.099135,-2.085067\H,
 0,-9.553036,0.559133,-2.710922\H,0,-9.282583,-1.132259,-2.264886\H,0,-
 8.414176,-0.430004,-3.640392\\Version=EM64L-G16RevA.03\State=1-A\HF=-4
 70.7330225\MP2=-472.3159049\RMSD=2.112e-09\PG=C01 [X(C12H28)]\\@


 The lyf so short, the craft so long to lerne.
                             -- Chaucer
 Job cpu time:       0 days  0 hours  1 minutes 53.5 seconds.
 Elapsed time:       0 days  0 hours  1 minutes  3.9 seconds.
 File lengths (MBytes):  RWF=     26 Int=      0 D2E=      0 Chk=      5 Scr=      1
 Normal termination of Gaussian 16 at Thu May  6 05:19:51 2021.
