 Entering Gaussian System, Link 0=/opt/gaussian/g16_legacy/g16
 Input=gaussian_03375_1_2.com
 Output=gaussian_03375_1_2.log
 Initial command:
 /opt/gaussian/g16_legacy/l1.exe "/scratch-local/jramos/2597451/Gau-30551.inp" -scrdir="/scratch-local/jramos/2597451/"
 Entering Link 1 = /opt/gaussian/g16_legacy/l1.exe PID=     30552.
  
 Copyright (c) 1988,1990,1992,1993,1995,1998,2003,2009,2016,
            Gaussian, Inc.  All Rights Reserved.
  
 This is part of the Gaussian(R) 16 program.  It is based on
 the Gaussian(R) 09 system (copyright 2009, Gaussian, Inc.),
 the Gaussian(R) 03 system (copyright 2003, Gaussian, Inc.),
 the Gaussian(R) 98 system (copyright 1998, Gaussian, Inc.),
 the Gaussian(R) 94 system (copyright 1995, Gaussian, Inc.),
 the Gaussian 92(TM) system (copyright 1992, Gaussian, Inc.),
 the Gaussian 90(TM) system (copyright 1990, Gaussian, Inc.),
 the Gaussian 88(TM) system (copyright 1988, Gaussian, Inc.),
 the Gaussian 86(TM) system (copyright 1986, Carnegie Mellon
 University), and the Gaussian 82(TM) system (copyright 1983,
 Carnegie Mellon University). Gaussian is a federally registered
 trademark of Gaussian, Inc.
  
 This software contains proprietary and confidential information,
 including trade secrets, belonging to Gaussian, Inc.
  
 This software is provided under written license and may be
 used, copied, transmitted, or stored only in accord with that
 written license.
  
 The following legend is applicable only to US Government
 contracts under FAR:
  
                    RESTRICTED RIGHTS LEGEND
  
 Use, reproduction and disclosure by the US Government is
 subject to restrictions as set forth in subparagraphs (a)
 and (c) of the Commercial Computer Software - Restricted
 Rights clause in FAR 52.227-19.
  
 Gaussian, Inc.
 340 Quinnipiac St., Bldg. 40, Wallingford CT 06492
  
  
 ---------------------------------------------------------------
 Warning -- This program may not be used in any manner that
 competes with the business of Gaussian, Inc. or will provide
 assistance to any competitor of Gaussian, Inc.  The licensee
 of this program is prohibited from giving any competitor of
 Gaussian, Inc. access to this program.  By using this program,
 the user acknowledges that Gaussian, Inc. is engaged in the
 business of creating and licensing software in the field of
 computational chemistry and represents and warrants to the
 licensee that it is not a competitor of Gaussian, Inc. and that
 it will not use this program in any manner prohibited above.
 ---------------------------------------------------------------
  

 Cite this work as:
 Gaussian 16, Revision A.03,
 M. J. Frisch, G. W. Trucks, H. B. Schlegel, G. E. Scuseria, 
 M. A. Robb, J. R. Cheeseman, G. Scalmani, V. Barone, 
 G. A. Petersson, H. Nakatsuji, X. Li, M. Caricato, A. V. Marenich, 
 J. Bloino, B. G. Janesko, R. Gomperts, B. Mennucci, H. P. Hratchian, 
 J. V. Ortiz, A. F. Izmaylov, J. L. Sonnenberg, D. Williams-Young, 
 F. Ding, F. Lipparini, F. Egidi, J. Goings, B. Peng, A. Petrone, 
 T. Henderson, D. Ranasinghe, V. G. Zakrzewski, J. Gao, N. Rega, 
 G. Zheng, W. Liang, M. Hada, M. Ehara, K. Toyota, R. Fukuda, 
 J. Hasegawa, M. Ishida, T. Nakajima, Y. Honda, O. Kitao, H. Nakai, 
 T. Vreven, K. Throssell, J. A. Montgomery, Jr., J. E. Peralta, 
 F. Ogliaro, M. J. Bearpark, J. J. Heyd, E. N. Brothers, K. N. Kudin, 
 V. N. Staroverov, T. A. Keith, R. Kobayashi, J. Normand, 
 K. Raghavachari, A. P. Rendell, J. C. Burant, S. S. Iyengar, 
 J. Tomasi, M. Cossi, J. M. Millam, M. Klene, C. Adamo, R. Cammi, 
 J. W. Ochterski, R. L. Martin, K. Morokuma, O. Farkas, 
 J. B. Foresman, and D. J. Fox, Gaussian, Inc., Wallingford CT, 2016.
 
 ******************************************
 Gaussian 16:  EM64L-G16RevA.03 25-Dec-2016
                 6-May-2021 
 ******************************************
 %chk=gaussian_03375_1_2.chk
 %nproc=2
 Will use up to    2 processors via shared memory.
 %mem=4000Mb
 -------------
 #p 6-31g* mp2
 -------------
 1/38=1,172=1/1;
 2/12=2,17=6,18=5,40=1/2;
 3/5=1,6=6,7=1,11=9,25=1,30=1/1,2,3;
 4//1;
 5/5=2,38=5/2;
 8/10=2/1;
 9/16=-3/6;
 6/7=2,8=2,9=2,10=2/1;
 99/5=1,9=1/99;
 Leave Link    1 at Thu May  6 12:11:27 2021, MaxMem=   524288000 cpu:               0.9 elap:               0.9
 (Enter /opt/gaussian/g16_legacy/l101.exe)
 ------------------------------------------------------
 Input file generated by CHIRIPA (05-May-2021 14:53:16)
 ------------------------------------------------------
 Symbolic Z-matrix:
 Charge =  0 Multiplicity = 1
 C                    -0.666    -0.374     0. 
 C                    -1.882     0.553     0. 
 C                    -3.207    -0.21      0. 
 H                    -0.713    -1.03     -0.88 
 H                    -0.713    -1.029     0.881 
 H                    -1.832     1.207    -0.88 
 H                    -1.832     1.207     0.88 
 H                    -3.283    -0.85      0.885 
 H                    -3.283    -0.85     -0.885 
 H                    -4.063     0.472     0. 
 C                     0.666     0.374     0. 
 C                     1.882    -0.553     0. 
 C                     3.207     0.21      0. 
 H                     0.713     1.029    -0.881 
 H                     0.713     1.03      0.88 
 H                     1.832    -1.207    -0.88 
 H                     1.832    -1.207     0.88 
 H                     3.283     0.85      0.885 
 H                     3.283     0.85     -0.885 
 H                     4.063    -0.472     0. 
 C                    -4.59254  -3.02054  -2.71012 
 C                    -4.90831  -2.05761  -3.67425 
 C                    -5.84233  -1.05496  -3.39702 
 C                    -6.4442   -1.04514  -2.13966 
 C                    -6.15068  -1.99054  -1.15815 
 C                    -5.21363  -2.984    -1.45735 
 H                    -3.86579  -3.79586  -2.93401 
 H                    -4.42753  -2.08352  -4.64802 
 H                    -6.10541  -0.29713  -4.12496 
 H                    -6.64647  -1.93879  -0.19641 
 H                    -4.97035  -3.73054  -0.70666 
 N                    -7.43461   0.01145  -1.83453 
 O                    -7.95091  -0.00178  -0.71923 
 O                    -7.67584   0.83282  -2.71646 
 
 ITRead=  0  0  0  0  0  0  0  0  0  0  0  0  0  0  0  0  0  0  0  0
 ITRead=  0  0  0  0  0  0  0  0  0  0  0  0  0  0
 MicOpt= -1 -1 -1 -1 -1 -1 -1 -1 -1 -1 -1 -1 -1 -1 -1 -1 -1 -1 -1 -1
 MicOpt= -1 -1 -1 -1 -1 -1 -1 -1 -1 -1 -1 -1 -1 -1
 NAtoms=     34 NQM=       34 NQMF=       0 NMMI=      0 NMMIF=      0
                NMic=       0 NMicF=      0.
                    Isotopes and Nuclear Properties:
 (Nuclear quadrupole moments (NQMom) in fm**2, nuclear magnetic moments (NMagM)
  in nuclear magnetons)

  Atom         1           2           3           4           5           6           7           8           9          10
 IAtWgt=          12          12          12           1           1           1           1           1           1           1
 AtmWgt=  12.0000000  12.0000000  12.0000000   1.0078250   1.0078250   1.0078250   1.0078250   1.0078250   1.0078250   1.0078250
 NucSpn=           0           0           0           1           1           1           1           1           1           1
 AtZEff=  -0.0000000  -0.0000000  -0.0000000  -0.0000000  -0.0000000  -0.0000000  -0.0000000  -0.0000000  -0.0000000  -0.0000000
 NQMom=    0.0000000   0.0000000   0.0000000   0.0000000   0.0000000   0.0000000   0.0000000   0.0000000   0.0000000   0.0000000
 NMagM=    0.0000000   0.0000000   0.0000000   2.7928460   2.7928460   2.7928460   2.7928460   2.7928460   2.7928460   2.7928460
 AtZNuc=   6.0000000   6.0000000   6.0000000   1.0000000   1.0000000   1.0000000   1.0000000   1.0000000   1.0000000   1.0000000

  Atom        11          12          13          14          15          16          17          18          19          20
 IAtWgt=          12          12          12           1           1           1           1           1           1           1
 AtmWgt=  12.0000000  12.0000000  12.0000000   1.0078250   1.0078250   1.0078250   1.0078250   1.0078250   1.0078250   1.0078250
 NucSpn=           0           0           0           1           1           1           1           1           1           1
 AtZEff=  -0.0000000  -0.0000000  -0.0000000  -0.0000000  -0.0000000  -0.0000000  -0.0000000  -0.0000000  -0.0000000  -0.0000000
 NQMom=    0.0000000   0.0000000   0.0000000   0.0000000   0.0000000   0.0000000   0.0000000   0.0000000   0.0000000   0.0000000
 NMagM=    0.0000000   0.0000000   0.0000000   2.7928460   2.7928460   2.7928460   2.7928460   2.7928460   2.7928460   2.7928460
 AtZNuc=   6.0000000   6.0000000   6.0000000   1.0000000   1.0000000   1.0000000   1.0000000   1.0000000   1.0000000   1.0000000

  Atom        21          22          23          24          25          26          27          28          29          30
 IAtWgt=          12          12          12          12          12          12           1           1           1           1
 AtmWgt=  12.0000000  12.0000000  12.0000000  12.0000000  12.0000000  12.0000000   1.0078250   1.0078250   1.0078250   1.0078250
 NucSpn=           0           0           0           0           0           0           1           1           1           1
 AtZEff=  -0.0000000  -0.0000000  -0.0000000  -0.0000000  -0.0000000  -0.0000000  -0.0000000  -0.0000000  -0.0000000  -0.0000000
 NQMom=    0.0000000   0.0000000   0.0000000   0.0000000   0.0000000   0.0000000   0.0000000   0.0000000   0.0000000   0.0000000
 NMagM=    0.0000000   0.0000000   0.0000000   0.0000000   0.0000000   0.0000000   2.7928460   2.7928460   2.7928460   2.7928460
 AtZNuc=   6.0000000   6.0000000   6.0000000   6.0000000   6.0000000   6.0000000   1.0000000   1.0000000   1.0000000   1.0000000

  Atom        31          32          33          34
 IAtWgt=           1          14          16          16
 AtmWgt=   1.0078250  14.0030740  15.9949146  15.9949146
 NucSpn=           1           2           0           0
 AtZEff=  -0.0000000  -0.0000000  -0.0000000  -0.0000000
 NQMom=    0.0000000   2.0440000   0.0000000   0.0000000
 NMagM=    2.7928460   0.4037610   0.0000000   0.0000000
 AtZNuc=   1.0000000   7.0000000   8.0000000   8.0000000
 Leave Link  101 at Thu May  6 12:11:28 2021, MaxMem=   524288000 cpu:               0.3 elap:               0.2
 (Enter /opt/gaussian/g16_legacy/l202.exe)
                          Input orientation:                          
 ---------------------------------------------------------------------
 Center     Atomic      Atomic             Coordinates (Angstroms)
 Number     Number       Type             X           Y           Z
 ---------------------------------------------------------------------
      1          6           0       -0.666000   -0.374000    0.000000
      2          6           0       -1.882000    0.553000    0.000000
      3          6           0       -3.207000   -0.210000    0.000000
      4          1           0       -0.713000   -1.030000   -0.880000
      5          1           0       -0.713000   -1.029000    0.881000
      6          1           0       -1.832000    1.207000   -0.880000
      7          1           0       -1.832000    1.207000    0.880000
      8          1           0       -3.283000   -0.850000    0.885000
      9          1           0       -3.283000   -0.850000   -0.885000
     10          1           0       -4.063000    0.472000    0.000000
     11          6           0        0.666000    0.374000    0.000000
     12          6           0        1.882000   -0.553000    0.000000
     13          6           0        3.207000    0.210000    0.000000
     14          1           0        0.713000    1.029000   -0.881000
     15          1           0        0.713000    1.030000    0.880000
     16          1           0        1.832000   -1.207000   -0.880000
     17          1           0        1.832000   -1.207000    0.880000
     18          1           0        3.283000    0.850000    0.885000
     19          1           0        3.283000    0.850000   -0.885000
     20          1           0        4.063000   -0.472000    0.000000
     21          6           0       -4.592536   -3.020544   -2.710116
     22          6           0       -4.908311   -2.057605   -3.674251
     23          6           0       -5.842334   -1.054964   -3.397016
     24          6           0       -6.444200   -1.045145   -2.139657
     25          6           0       -6.150682   -1.990542   -1.158147
     26          6           0       -5.213634   -2.984004   -1.457350
     27          1           0       -3.865789   -3.795855   -2.934012
     28          1           0       -4.427526   -2.083524   -4.648016
     29          1           0       -6.105413   -0.297134   -4.124959
     30          1           0       -6.646472   -1.938794   -0.196413
     31          1           0       -4.970350   -3.730539   -0.706656
     32          7           0       -7.434610    0.011448   -1.834532
     33          8           0       -7.950908   -0.001777   -0.719231
     34          8           0       -7.675841    0.832823   -2.716455
 ---------------------------------------------------------------------
                    Distance matrix (angstroms):
                    1          2          3          4          5
     1  C    0.000000
     2  C    1.529047   0.000000
     3  C    2.546287   1.528985   0.000000
     4  H    1.098610   2.155655   2.768905   0.000000
     5  H    1.098815   2.155330   2.768927   1.761000   0.000000
     6  H    2.152561   1.097550   2.161692   2.501266   3.058264
     7  H    2.152561   1.097550   2.161692   3.058420   2.500372
     8  H    2.803300   2.171275   1.094806   3.122903   2.576229
     9  H    2.803300   2.171275   1.094806   2.576301   3.123411
    10  H    3.500761   2.182504   1.094468   3.775302   3.775137
    11  C    1.527654   2.554280   3.916782   2.155750   2.155507
    12  C    2.554280   3.923128   5.100546   2.781358   2.781504
    13  C    3.916782   5.100546   6.427736   4.204569   4.204484
    14  H    2.155507   2.781504   4.204484   2.504587   3.061615
    15  H    2.155750   2.781358   4.204569   3.061809   2.504587
    16  H    2.776381   4.203070   5.211519   2.551148   3.099973
    17  H    2.776381   4.203070   5.211519   3.099347   2.551217
    18  H    4.228002   5.248682   6.635279   4.755801   4.415730
    19  H    4.228002   5.248682   6.635279   4.416157   4.755777
    20  H    4.730015   6.032715   7.274720   4.888347   4.888413
    21  C    5.455878   5.240415   4.142897   4.728889   5.649173
    22  C    5.859339   5.428990   4.450643   5.144361   6.277657
    23  C    6.228793   5.459809   4.381628   5.713673   6.679234
    24  C    6.198077   5.286385   3.969265   5.868017   6.478525
    25  C    5.834059   5.102211   3.630000   5.528869   5.886516
    26  C    5.442147   5.072874   3.720961   4.940361   5.435589
    27  H    5.527763   5.608599   4.679828   4.670010   5.670087
    28  H    6.218971   5.919038   5.157890   5.394957   6.743867
    29  H    6.827035   5.964498   5.042190   6.336006   7.394144
    30  H    6.184917   5.380317   3.854514   6.041464   6.098740
    31  H    5.503921   5.327849   4.000370   5.044600   5.286208
    32  N    7.023401   5.872841   4.613809   6.868463   7.323707
    33  O    7.329784   6.136507   4.802636   7.312346   7.483531
    34  O    7.614028   6.405156   5.332649   7.437999   8.055385
                    6          7          8          9         10
     6  H    0.000000
     7  H    1.760000   0.000000
     8  H    3.074390   2.517275   0.000000
     9  H    2.517275   3.074390   1.770000   0.000000
    10  H    2.508383   2.508383   1.771810   1.771810   0.000000
    11  C    2.776381   2.776381   4.228002   4.228002   4.730015
    12  C    4.203070   4.203070   5.248682   5.248682   6.032715
    13  C    5.211519   5.211519   6.635279   6.635279   7.274720
    14  H    2.551217   3.099973   4.755777   4.415730   4.888413
    15  H    3.099347   2.551148   4.416157   4.755801   4.888347
    16  H    4.387743   4.727567   5.422721   5.127446   6.192291
    17  H    4.727567   4.387743   5.127446   5.422721   6.192291
    18  H    5.422721   5.127446   6.782504   7.009654   7.408767
    19  H    5.127446   5.422721   7.009654   6.782504   7.408767
    20  H    6.192291   6.192291   7.408767   7.408767   8.180649
    21  C    5.370476   6.195290   4.398978   3.123651   4.452303
    22  C    5.284806   6.392381   4.988659   3.446718   4.540217
    23  C    5.247345   6.284276   4.992781   3.591995   4.127634
    24  C    5.285005   5.955071   4.379477   3.406675   3.542594
    25  C    5.380767   5.747115   3.701201   3.098233   3.429845
    26  C    5.416022   5.870534   3.710515   2.934094   3.923237
    27  H    5.777873   6.611471   4.858246   3.635403   5.182847
    28  H    5.635801   6.937093   5.783233   4.122112   5.316732
    29  H    5.572633   6.750859   5.776795   4.332322   4.666723
    30  H    5.791585   5.850968   3.697008   3.601745   3.539044
    31  H    5.853083   6.061849   3.698381   3.343122   4.357061
    32  N    5.807729   6.339343   5.037243   4.345063   3.865924
    33  O    6.239233   6.438922   5.008234   4.747244   3.982159
    34  O    6.137023   6.872043   5.924477   5.048086   4.534528
                   11         12         13         14         15
    11  C    0.000000
    12  C    1.529047   0.000000
    13  C    2.546287   1.528985   0.000000
    14  H    1.098815   2.155330   2.768927   0.000000
    15  H    1.098610   2.155655   2.768905   1.761000   0.000000
    16  H    2.152561   1.097550   2.161692   2.500372   3.058420
    17  H    2.152561   1.097550   2.161692   3.058264   2.501266
    18  H    2.803300   2.171275   1.094806   3.123411   2.576301
    19  H    2.803300   2.171275   1.094806   2.576229   3.122903
    20  H    3.500761   2.182504   1.094468   3.775137   3.775302
    21  C    6.820547   7.439968   8.866448   6.920490   7.579218
    22  C    7.105334   7.865893   9.192411   6.994892   7.865980
    23  C    7.479309   8.453225   9.748348   7.324319   8.100145
    24  C    7.559567   8.610804   9.964898   7.557235   8.040527
    25  C    7.307497   8.242076   9.682453   7.503637   7.770962
    26  C    6.926049   7.640790   9.123191   7.180625   7.529968
    27  H    6.821527   7.222300   8.641739   6.961278   7.668173
    28  H    7.320347   7.984778   9.227692   7.092476   8.165660
    29  H    7.957245   8.993304  10.197721   7.666333   8.561639
    30  H    7.672017   8.642560  10.086962   7.964816   8.008385
    31  H    7.008213   7.586225   9.104739   7.415125   7.581601
    32  N    8.313653   9.512273  10.800407   8.266086   8.648103
    33  O    8.655034   9.874574  11.183070   8.726510   8.870479
    34  O    8.784985  10.032545  11.234023   8.589530   9.129404
                   16         17         18         19         20
    16  H    0.000000
    17  H    1.760000   0.000000
    18  H    3.074390   2.517275   0.000000
    19  H    2.517275   3.074390   1.770000   0.000000
    20  H    2.508383   2.508383   1.771810   1.771810   0.000000
    21  C    6.921917   7.579745   9.483145   8.963048   9.421152
    22  C    7.345962   8.179029   9.815218   9.128618   9.823374
    23  C    8.077988   8.787001  10.258473   9.654576  10.487860
    24  C    8.373077   8.811357  10.361397   9.989202  10.738151
    25  C    8.025865   8.275941  10.061684   9.855843  10.390697
    26  C    7.289172   7.632949   9.611398   9.339163   9.720595
    27  H    6.586800   7.328960   9.342056   8.768558   9.084169
    28  H    7.358526   8.396959   9.933380   9.067418   9.812752
    29  H    8.623233   9.427619  10.703173   9.997777  10.974629
    30  H    8.537406   8.577801  10.370209  10.336631  10.811237
    31  H    7.257428   7.426822   9.572486   9.440918   9.629063
    32  N    9.394988   9.732593  11.089012  10.792217  11.653080
    33  O    9.858179   9.985759  11.379797  11.267373  12.044600
    34  O    9.896084  10.367951  11.535466  11.110838  12.119492
                   21         22         23         24         25
    21  C    0.000000
    22  C    1.398757   0.000000
    23  C    2.428442   1.398051   0.000000
    24  C    2.766999   2.395623   1.394020   0.000000
    25  C    2.428442   2.806913   2.446001   1.394019   0.000000
    26  C    1.398757   2.422001   2.806913   2.395623   1.398052
    27  H    1.086001   2.157851   3.410804   3.853000   3.410805
    28  H    2.158863   1.086298   2.150493   3.381874   3.893212
    29  H    3.421628   2.176109   1.083244   2.148423   3.416380
    30  H    3.421628   3.889817   3.416380   2.148423   1.083244
    31  H    2.158863   3.407224   3.893211   3.381873   2.150492
    32  N    4.247000   3.748031   2.472637   1.480001   2.472637
    33  O    4.935103   4.713382   3.567327   2.318706   2.718207
    34  O    4.935104   4.114750   2.718207   2.318706   3.567327
                   26         27         28         29         30
    26  C    0.000000
    27  H    2.157851   0.000000
    28  H    3.407225   2.487054   0.000000
    29  H    3.889817   4.321495   2.506009   0.000000
    30  H    2.176109   4.321495   4.976087   4.292000   0.000000
    31  H    1.086298   2.487054   4.306000   4.976086   2.506009
    32  N    3.748031   5.333001   4.620298   2.666091   2.666091
    33  O    4.114750   5.999040   5.673028   3.884851   2.393100
    34  O    4.713383   5.999041   4.773632   2.393101   3.884852
                   31         32         33         34
    31  H    0.000000
    32  N    4.620297   0.000000
    33  O    4.773631   1.229079   0.000000
    34  O    5.673028   1.229080   2.182000   0.000000
 Stoichiometry    C12H19NO2
 Framework group  C1[X(C12H19NO2)]
 Deg. of freedom    96
 Full point group                 C1      NOp   1
 Largest Abelian subgroup         C1      NOp   1
 Largest concise Abelian subgroup C1      NOp   1
                         Standard orientation:                         
 ---------------------------------------------------------------------
 Center     Atomic      Atomic             Coordinates (Angstroms)
 Number     Number       Type             X           Y           Z
 ---------------------------------------------------------------------
      1          6           0        3.094551   -0.261397   -0.379310
      2          6           0        2.013661   -1.298505   -0.072604
      3          6           0        0.664655   -0.950394   -0.702522
      4          1           0        2.762901    0.722044   -0.019037
      5          1           0        3.209376   -0.172829   -1.468514
      6          1           0        1.901879   -1.386095    1.015720
      7          1           0        2.348005   -2.279627   -0.433478
      8          1           0        0.754030   -0.882665   -1.791570
      9          1           0        0.305370    0.015944   -0.334139
     10          1           0       -0.093392   -1.705007   -0.470609
     11          6           0        4.448846   -0.595482    0.243588
     12          6           0        5.529736    0.441626   -0.063118
     13          6           0        6.878742    0.093514    0.566800
     14          1           0        4.334020   -0.684050    1.332792
     15          1           0        4.780496   -1.578924   -0.116685
     16          1           0        5.195391    1.422748    0.297756
     17          1           0        5.641517    0.529216   -1.151441
     18          1           0        7.238027   -0.872824    0.198417
     19          1           0        6.789366    0.025785    1.655848
     20          1           0        7.636788    0.848128    0.334887
     21          6           0       -1.627308    2.467441   -0.224080
     22          6           0       -2.082643    2.085511    1.042143
     23          6           0       -2.814550    0.905881    1.207463
     24          6           0       -3.074187    0.128535    0.079805
     25          6           0       -2.634176    0.482182   -1.194799
     26          6           0       -1.904040    1.665971   -1.336549
     27          1           0       -1.059433    3.385422   -0.343350
     28          1           0       -1.869217    2.705985    1.907883
     29          1           0       -3.179102    0.586486    2.176229
     30          1           0       -2.862600   -0.156978   -2.039023
     31          1           0       -1.551683    1.960096   -2.321119
     32          7           0       -3.848087   -1.122489    0.242345
     33          8           0       -4.063599   -1.789904   -0.766984
     34          8           0       -4.224505   -1.411936    1.375998
 ---------------------------------------------------------------------
 Rotational constants (GHZ):           0.9990243           0.1698475           0.1592412
 Leave Link  202 at Thu May  6 12:11:28 2021, MaxMem=   524288000 cpu:               0.1 elap:               0.1
 (Enter /opt/gaussian/g16_legacy/l301.exe)
 Standard basis: 6-31G(d) (6D, 7F)
 Ernie: Thresh=  0.10000D-02 Tol=  0.10000D-05 Strict=F.
 There are   263 symmetry adapted cartesian basis functions of A   symmetry.
 There are   263 symmetry adapted basis functions of A   symmetry.
   263 basis functions,   496 primitive gaussians,   263 cartesian basis functions
    57 alpha electrons       57 beta electrons
       nuclear repulsion energy       915.1694144242 Hartrees.
 IExCor=    0 DFT=F Ex=HF Corr=None ExCW=0 ScaHFX=  1.000000
 ScaDFX=  1.000000  1.000000  1.000000  1.000000 ScalE2=  1.000000  1.000000
 IRadAn=      5 IRanWt=     -1 IRanGd=            0 ICorTp=0 IEmpDi=  4
 NAtoms=   34 NActive=   34 NUniq=   34 SFac= 1.00D+00 NAtFMM=   60 NAOKFM=F Big=F
 Integral buffers will be    131072 words long.
 Raffenetti 1 integral format.
 Two-electron integral symmetry is turned on.
 Leave Link  301 at Thu May  6 12:11:28 2021, MaxMem=   524288000 cpu:               0.2 elap:               0.2
 (Enter /opt/gaussian/g16_legacy/l302.exe)
 NPDir=0 NMtPBC=     1 NCelOv=     1 NCel=       1 NClECP=     1 NCelD=      1
         NCelK=      1 NCelE2=     1 NClLst=     1 CellRange=     0.0.
 One-electron integrals computed using PRISM.
 One-electron integral symmetry used in STVInt
 NBasis=   263 RedAO= T EigKep=  4.81D-04  NBF=   263
 NBsUse=   263 1.00D-06 EigRej= -1.00D+00 NBFU=   263
 Leave Link  302 at Thu May  6 12:11:29 2021, MaxMem=   524288000 cpu:               0.8 elap:               0.7
 (Enter /opt/gaussian/g16_legacy/l303.exe)
 DipDrv:  MaxL=1.
 Leave Link  303 at Thu May  6 12:11:30 2021, MaxMem=   524288000 cpu:               0.3 elap:               0.3
 (Enter /opt/gaussian/g16_legacy/l401.exe)
 ExpMin= 1.61D-01 ExpMax= 5.48D+03 ExpMxC= 8.25D+02 IAcc=3 IRadAn=         5 AccDes= 0.00D+00
 Harris functional with IExCor=  205 and IRadAn=       5 diagonalized for initial guess.
 HarFok:  IExCor=  205 AccDes= 0.00D+00 IRadAn=         5 IDoV= 1 UseB2=F ITyADJ=14
 ICtDFT=  3500011 ScaDFX=  1.000000  1.000000  1.000000  1.000000
 FoFCou: FMM=F IPFlag=           0 FMFlag=      100000 FMFlg1=           0
         NFxFlg=           0 DoJE=T BraDBF=F KetDBF=T FulRan=T
         wScrn=  0.000000 ICntrl=       500 IOpCl=  0 I1Cent=   200000004 NGrid=           0
         NMat0=    1 NMatS0=      1 NMatT0=    0 NMatD0=    1 NMtDS0=    0 NMtDT0=    0
 Petite list used in FoFCou.
 Harris En= -670.657200405198    
 JPrj=0 DoOrth=F DoCkMO=F.
 Leave Link  401 at Thu May  6 12:11:37 2021, MaxMem=   524288000 cpu:              13.8 elap:               7.6
 (Enter /opt/gaussian/g16_legacy/l502.exe)
 Integral symmetry usage will be decided dynamically.
 Closed shell SCF:
 Using DIIS extrapolation, IDIIS=  1040.
 NGot=   524288000 LenX=   524144919 LenY=   524075309
 Requested convergence on RMS density matrix=1.00D-08 within 128 cycles.
 Requested convergence on MAX density matrix=1.00D-06.
 Requested convergence on             energy=1.00D-06.
 No special actions if energy rises.
 Fock matrices will be formed incrementally for  20 cycles.
 Integral accuracy reduced to 1.0D-05 until final iterations.

 Cycle   1  Pass 0  IDiag  1:
 FoFJK:  IHMeth= 1 ICntrl=       0 DoSepK=F KAlg= 0 I1Cent=           0 FoldK=F
 IRaf= 740000000 NMat=       1 IRICut=       1 DoRegI=T DoRafI=F ISym2E= 0 IDoP0=0 IntGTp=1.
 FoFCou: FMM=F IPFlag=           0 FMFlag=      100000 FMFlg1=           0
         NFxFlg=           0 DoJE=F BraDBF=F KetDBF=F FulRan=T
         wScrn=  0.000000 ICntrl=         0 IOpCl=  0 I1Cent=           0 NGrid=           0
         NMat0=    1 NMatS0=      1 NMatT0=    0 NMatD0=    1 NMtDS0=    0 NMtDT0=    0
 Symmetry not used in FoFCou.
 E= -668.741140386224    
 DIIS: error= 5.63D-02 at cycle   1 NSaved=   1.
 NSaved= 1 IEnMin= 1 EnMin= -668.741140386224     IErMin= 1 ErrMin= 5.63D-02
 ErrMax= 5.63D-02  0.00D+00 EMaxC= 1.00D-01 BMatC= 1.17D+00 BMatP= 1.17D+00
 IDIUse=3 WtCom= 4.37D-01 WtEn= 5.63D-01
 Coeff-Com:  0.100D+01
 Coeff-En:   0.100D+01
 Coeff:      0.100D+01
 Gap=     0.555 Goal=   None    Shift=    0.000
 GapD=    0.555 DampG=2.000 DampE=0.500 DampFc=1.0000 IDamp=-1.
 RMSDP=4.59D-03 MaxDP=1.17D-01              OVMax= 1.49D-01

 Cycle   2  Pass 0  IDiag  1:
 RMSU=  4.46D-03    CP:  9.48D-01
 E= -669.357720699233     Delta-E=       -0.616580313009 Rises=F Damp=F
 DIIS: error= 2.48D-02 at cycle   2 NSaved=   2.
 NSaved= 2 IEnMin= 2 EnMin= -669.357720699233     IErMin= 2 ErrMin= 2.48D-02
 ErrMax= 2.48D-02  0.00D+00 EMaxC= 1.00D-01 BMatC= 2.18D-01 BMatP= 1.17D+00
 IDIUse=3 WtCom= 7.52D-01 WtEn= 2.48D-01
 Coeff-Com:  0.246D+00 0.754D+00
 Coeff-En:   0.000D+00 0.100D+01
 Coeff:      0.185D+00 0.815D+00
 Gap=     0.565 Goal=   None    Shift=    0.000
 RMSDP=1.80D-03 MaxDP=8.11D-02 DE=-6.17D-01 OVMax= 1.21D-01

 Cycle   3  Pass 0  IDiag  1:
 RMSU=  1.42D-03    CP:  9.57D-01  7.58D-01
 E= -669.508077138494     Delta-E=       -0.150356439261 Rises=F Damp=F
 DIIS: error= 1.46D-02 at cycle   3 NSaved=   3.
 NSaved= 3 IEnMin= 3 EnMin= -669.508077138494     IErMin= 3 ErrMin= 1.46D-02
 ErrMax= 1.46D-02  0.00D+00 EMaxC= 1.00D-01 BMatC= 3.43D-02 BMatP= 2.18D-01
 IDIUse=3 WtCom= 8.54D-01 WtEn= 1.46D-01
 Coeff-Com: -0.916D-02 0.262D+00 0.747D+00
 Coeff-En:   0.000D+00 0.000D+00 0.100D+01
 Coeff:     -0.782D-02 0.224D+00 0.784D+00
 Gap=     0.426 Goal=   None    Shift=    0.000
 RMSDP=5.90D-04 MaxDP=3.25D-02 DE=-1.50D-01 OVMax= 4.92D-02

 Cycle   4  Pass 0  IDiag  1:
 RMSU=  4.00D-04    CP:  9.56D-01  8.33D-01  8.09D-01
 E= -669.532136562830     Delta-E=       -0.024059424335 Rises=F Damp=F
 DIIS: error= 4.13D-03 at cycle   4 NSaved=   4.
 NSaved= 4 IEnMin= 4 EnMin= -669.532136562830     IErMin= 4 ErrMin= 4.13D-03
 ErrMax= 4.13D-03  0.00D+00 EMaxC= 1.00D-01 BMatC= 2.97D-03 BMatP= 3.43D-02
 IDIUse=3 WtCom= 9.59D-01 WtEn= 4.13D-02
 Coeff-Com: -0.132D-01 0.404D-01 0.295D+00 0.678D+00
 Coeff-En:   0.000D+00 0.000D+00 0.000D+00 0.100D+01
 Coeff:     -0.126D-01 0.387D-01 0.283D+00 0.691D+00
 Gap=     0.412 Goal=   None    Shift=    0.000
 RMSDP=1.73D-04 MaxDP=8.23D-03 DE=-2.41D-02 OVMax= 1.45D-02

 Cycle   5  Pass 0  IDiag  1:
 RMSU=  9.68D-05    CP:  9.55D-01  8.35D-01  8.83D-01  7.62D-01
 E= -669.534540655242     Delta-E=       -0.002404092412 Rises=F Damp=F
 DIIS: error= 4.22D-04 at cycle   5 NSaved=   5.
 NSaved= 5 IEnMin= 5 EnMin= -669.534540655242     IErMin= 5 ErrMin= 4.22D-04
 ErrMax= 4.22D-04  0.00D+00 EMaxC= 1.00D-01 BMatC= 5.86D-05 BMatP= 2.97D-03
 IDIUse=3 WtCom= 9.96D-01 WtEn= 4.22D-03
 Coeff-Com:  0.200D-02-0.186D-01-0.764D-01-0.336D-01 0.113D+01
 Coeff-En:   0.000D+00 0.000D+00 0.000D+00 0.000D+00 0.100D+01
 Coeff:      0.199D-02-0.185D-01-0.760D-01-0.335D-01 0.113D+01
 Gap=     0.414 Goal=   None    Shift=    0.000
 RMSDP=5.29D-05 MaxDP=1.38D-03 DE=-2.40D-03 OVMax= 4.71D-03

 Cycle   6  Pass 0  IDiag  1:
 RMSU=  2.46D-05    CP:  9.55D-01  8.37D-01  8.96D-01  8.46D-01  1.26D+00
 E= -669.534650041616     Delta-E=       -0.000109386375 Rises=F Damp=F
 DIIS: error= 2.26D-04 at cycle   6 NSaved=   6.
 NSaved= 6 IEnMin= 6 EnMin= -669.534650041616     IErMin= 6 ErrMin= 2.26D-04
 ErrMax= 2.26D-04  0.00D+00 EMaxC= 1.00D-01 BMatC= 5.91D-06 BMatP= 5.86D-05
 IDIUse=3 WtCom= 9.98D-01 WtEn= 2.26D-03
 Coeff-Com:  0.127D-02-0.634D-02-0.349D-01-0.536D-01 0.145D+00 0.949D+00
 Coeff-En:   0.000D+00 0.000D+00 0.000D+00 0.000D+00 0.000D+00 0.100D+01
 Coeff:      0.127D-02-0.633D-02-0.349D-01-0.535D-01 0.144D+00 0.949D+00
 Gap=     0.413 Goal=   None    Shift=    0.000
 RMSDP=1.75D-05 MaxDP=4.79D-04 DE=-1.09D-04 OVMax= 1.67D-03

 Cycle   7  Pass 0  IDiag  1:
 RMSU=  8.77D-06    CP:  9.55D-01  8.38D-01  8.99D-01  8.58D-01  1.39D+00
                    CP:  1.18D+00
 E= -669.534665067626     Delta-E=       -0.000015026009 Rises=F Damp=F
 DIIS: error= 1.13D-04 at cycle   7 NSaved=   7.
 NSaved= 7 IEnMin= 7 EnMin= -669.534665067626     IErMin= 7 ErrMin= 1.13D-04
 ErrMax= 1.13D-04  0.00D+00 EMaxC= 1.00D-01 BMatC= 1.13D-06 BMatP= 5.91D-06
 IDIUse=3 WtCom= 9.99D-01 WtEn= 1.13D-03
 Coeff-Com: -0.252D-03 0.233D-02 0.956D-02 0.606D-02-0.151D+00 0.744D-02
 Coeff-Com:  0.113D+01
 Coeff-En:   0.000D+00 0.000D+00 0.000D+00 0.000D+00 0.000D+00 0.000D+00
 Coeff-En:   0.100D+01
 Coeff:     -0.251D-03 0.233D-02 0.955D-02 0.605D-02-0.151D+00 0.743D-02
 Coeff:      0.113D+01
 Gap=     0.413 Goal=   None    Shift=    0.000
 RMSDP=8.86D-06 MaxDP=3.72D-04 DE=-1.50D-05 OVMax= 1.34D-03

 Initial convergence to 1.0D-05 achieved.  Increase integral accuracy.
 Cycle   8  Pass 1  IDiag  1:
 E= -669.534670188875     Delta-E=       -0.000005121249 Rises=F Damp=F
 DIIS: error= 7.34D-05 at cycle   1 NSaved=   1.
 NSaved= 1 IEnMin= 1 EnMin= -669.534670188875     IErMin= 1 ErrMin= 7.34D-05
 ErrMax= 7.34D-05  0.00D+00 EMaxC= 1.00D-01 BMatC= 3.41D-07 BMatP= 3.41D-07
 IDIUse=1 WtCom= 1.00D+00 WtEn= 0.00D+00
 Coeff-Com:  0.100D+01
 Coeff:      0.100D+01
 Gap=     0.414 Goal=   None    Shift=    0.000
 RMSDP=8.86D-06 MaxDP=3.72D-04 DE=-5.12D-06 OVMax= 5.31D-04

 Cycle   9  Pass 1  IDiag  1:
 RMSU=  6.16D-06    CP:  1.00D+00
 E= -669.534671174126     Delta-E=       -0.000000985251 Rises=F Damp=F
 DIIS: error= 4.00D-05 at cycle   2 NSaved=   2.
 NSaved= 2 IEnMin= 2 EnMin= -669.534671174126     IErMin= 2 ErrMin= 4.00D-05
 ErrMax= 4.00D-05  0.00D+00 EMaxC= 1.00D-01 BMatC= 1.16D-07 BMatP= 3.41D-07
 IDIUse=1 WtCom= 1.00D+00 WtEn= 0.00D+00
 Coeff-Com:  0.167D-01 0.983D+00
 Coeff:      0.167D-01 0.983D+00
 Gap=     0.414 Goal=   None    Shift=    0.000
 RMSDP=2.25D-06 MaxDP=8.60D-05 DE=-9.85D-07 OVMax= 3.77D-04

 Cycle  10  Pass 1  IDiag  1:
 RMSU=  1.95D-06    CP:  1.00D+00  1.18D+00
 E= -669.534671576203     Delta-E=       -0.000000402077 Rises=F Damp=F
 DIIS: error= 3.39D-05 at cycle   3 NSaved=   3.
 NSaved= 3 IEnMin= 3 EnMin= -669.534671576203     IErMin= 3 ErrMin= 3.39D-05
 ErrMax= 3.39D-05  0.00D+00 EMaxC= 1.00D-01 BMatC= 5.34D-08 BMatP= 1.16D-07
 IDIUse=1 WtCom= 1.00D+00 WtEn= 0.00D+00
 Coeff-Com: -0.422D+00 0.110D+00 0.131D+01
 Coeff:     -0.422D+00 0.110D+00 0.131D+01
 Gap=     0.414 Goal=   None    Shift=    0.000
 RMSDP=2.69D-06 MaxDP=7.06D-05 DE=-4.02D-07 OVMax= 3.98D-04

 Cycle  11  Pass 1  IDiag  1:
 RMSU=  1.45D-06    CP:  1.00D+00  1.44D+00  1.84D+00
 E= -669.534671862645     Delta-E=       -0.000000286443 Rises=F Damp=F
 DIIS: error= 8.49D-06 at cycle   4 NSaved=   4.
 NSaved= 4 IEnMin= 4 EnMin= -669.534671862645     IErMin= 4 ErrMin= 8.49D-06
 ErrMax= 8.49D-06  0.00D+00 EMaxC= 1.00D-01 BMatC= 6.70D-09 BMatP= 5.34D-08
 IDIUse=1 WtCom= 1.00D+00 WtEn= 0.00D+00
 Coeff-Com: -0.259D-01-0.239D+00 0.476D-01 0.122D+01
 Coeff:     -0.259D-01-0.239D+00 0.476D-01 0.122D+01
 Gap=     0.414 Goal=   None    Shift=    0.000
 RMSDP=1.28D-06 MaxDP=3.78D-05 DE=-2.86D-07 OVMax= 1.98D-04

 Cycle  12  Pass 1  IDiag  1:
 RMSU=  2.42D-07    CP:  1.00D+00  1.53D+00  2.36D+00  1.35D+00
 E= -669.534671901579     Delta-E=       -0.000000038934 Rises=F Damp=F
 DIIS: error= 2.14D-06 at cycle   5 NSaved=   5.
 NSaved= 5 IEnMin= 5 EnMin= -669.534671901579     IErMin= 5 ErrMin= 2.14D-06
 ErrMax= 2.14D-06  0.00D+00 EMaxC= 1.00D-01 BMatC= 1.09D-09 BMatP= 6.70D-09
 IDIUse=1 WtCom= 1.00D+00 WtEn= 0.00D+00
 Coeff-Com:  0.236D-01-0.112D+00-0.811D-01 0.527D+00 0.643D+00
 Coeff:      0.236D-01-0.112D+00-0.811D-01 0.527D+00 0.643D+00
 Gap=     0.414 Goal=   None    Shift=    0.000
 RMSDP=1.57D-07 MaxDP=6.43D-06 DE=-3.89D-08 OVMax= 2.09D-05

 Cycle  13  Pass 1  IDiag  1:
 RMSU=  8.86D-08    CP:  1.00D+00  1.53D+00  2.41D+00  1.40D+00  8.27D-01
 E= -669.534671902866     Delta-E=       -0.000000001286 Rises=F Damp=F
 DIIS: error= 6.77D-07 at cycle   6 NSaved=   6.
 NSaved= 6 IEnMin= 6 EnMin= -669.534671902866     IErMin= 6 ErrMin= 6.77D-07
 ErrMax= 6.77D-07  0.00D+00 EMaxC= 1.00D-01 BMatC= 4.36D-11 BMatP= 1.09D-09
 IDIUse=1 WtCom= 1.00D+00 WtEn= 0.00D+00
 Coeff-Com:  0.378D-03 0.334D-01 0.478D-02-0.171D+00-0.954D-01 0.123D+01
 Coeff:      0.378D-03 0.334D-01 0.478D-02-0.171D+00-0.954D-01 0.123D+01
 Gap=     0.414 Goal=   None    Shift=    0.000
 RMSDP=5.62D-08 MaxDP=1.59D-06 DE=-1.29D-09 OVMax= 5.60D-06

 Cycle  14  Pass 1  IDiag  1:
 RMSU=  2.73D-08    CP:  1.00D+00  1.53D+00  2.42D+00  1.41D+00  9.43D-01
                    CP:  1.33D+00
 E= -669.534671903000     Delta-E=       -0.000000000134 Rises=F Damp=F
 DIIS: error= 2.66D-07 at cycle   7 NSaved=   7.
 NSaved= 7 IEnMin= 7 EnMin= -669.534671903000     IErMin= 7 ErrMin= 2.66D-07
 ErrMax= 2.66D-07  0.00D+00 EMaxC= 1.00D-01 BMatC= 7.96D-12 BMatP= 4.36D-11
 IDIUse=1 WtCom= 1.00D+00 WtEn= 0.00D+00
 Coeff-Com: -0.293D-02 0.204D-01 0.116D-01-0.101D+00-0.117D+00 0.271D+00
 Coeff-Com:  0.918D+00
 Coeff:     -0.293D-02 0.204D-01 0.116D-01-0.101D+00-0.117D+00 0.271D+00
 Coeff:      0.918D+00
 Gap=     0.414 Goal=   None    Shift=    0.000
 RMSDP=1.89D-08 MaxDP=7.68D-07 DE=-1.34D-10 OVMax= 2.18D-06

 Cycle  15  Pass 1  IDiag  1:
 RMSU=  9.94D-09    CP:  1.00D+00  1.54D+00  2.42D+00  1.41D+00  9.59D-01
                    CP:  1.47D+00  1.11D+00
 E= -669.534671903018     Delta-E=       -0.000000000018 Rises=F Damp=F
 DIIS: error= 8.70D-08 at cycle   8 NSaved=   8.
 NSaved= 8 IEnMin= 8 EnMin= -669.534671903018     IErMin= 8 ErrMin= 8.70D-08
 ErrMax= 8.70D-08  0.00D+00 EMaxC= 1.00D-01 BMatC= 1.33D-12 BMatP= 7.96D-12
 IDIUse=1 WtCom= 1.00D+00 WtEn= 0.00D+00
 Coeff-Com: -0.472D-03-0.137D-02 0.186D-02 0.634D-02-0.134D-01-0.105D+00
 Coeff-Com:  0.157D+00 0.955D+00
 Coeff:     -0.472D-03-0.137D-02 0.186D-02 0.634D-02-0.134D-01-0.105D+00
 Coeff:      0.157D+00 0.955D+00
 Gap=     0.414 Goal=   None    Shift=    0.000
 RMSDP=6.54D-09 MaxDP=3.42D-07 DE=-1.82D-11 OVMax= 5.52D-07

 SCF Done:  E(RHF) =  -669.534671903     A.U. after   15 cycles
            NFock= 15  Conv=0.65D-08     -V/T= 2.0023
 KE= 6.679700974885D+02 PE=-3.393379222825D+03 EE= 1.140705039009D+03
 Leave Link  502 at Thu May  6 12:12:27 2021, MaxMem=   524288000 cpu:              98.2 elap:              49.6
 (Enter /opt/gaussian/g16_legacy/l801.exe)
 ExpMin= 1.61D-01 ExpMax= 5.48D+03 ExpMxC= 8.25D+02 IAcc=3 IRadAn=         5 AccDes= 0.00D+00
 HarFok:  IExCor=  205 AccDes= 0.00D+00 IRadAn=         5 IDoV=-2 UseB2=F ITyADJ=14
 ICtDFT= 12500011 ScaDFX=  1.000000  1.000000  1.000000  1.000000
 Largest valence mixing into a core orbital is  1.98D-04
 Largest core mixing into a valence orbital is  4.00D-05
 Range of M.O.s used for correlation:    16   263
 NBasis=   263 NAE=    57 NBE=    57 NFC=    15 NFV=     0
 NROrb=    248 NOA=    42 NOB=    42 NVA=   206 NVB=   206
 Leave Link  801 at Thu May  6 12:12:28 2021, MaxMem=   524288000 cpu:               1.9 elap:               1.0
 (Enter /opt/gaussian/g16_legacy/l906.exe)
 FulOut=F Deriv=F AODrv=F NAtomX=    34
   MMem=         113  MDisk=          42 MDiskD=          42
  W3Min=     2275476 MinDsk=     2420380 NBas6D=         263
 NBas2D=       35121    NTT=       34716    LW2=     2000000
    MDV=   523938276 MDiskM=       27563 NBas2p=       24336
 Fully direct method using O(OVN) memory.
 IMap=   1   2   3   4   5   6   7   8   9  10  11  12  13  14  15  16  17  18  19  20
 IMap=  21  22  23  24  25  26  27  28  29  30  31  32  33  34  35  36  37  38  39  40
 IMap=  41  42
 JobTyp=1 Pass  1:  I=   1 to  42 NPSUse=  2 ParTrn=T ParDer=T DoDerP=F.
 Spin components of T(2) and E(2):
     alpha-alpha T2 =       0.9509050441D-01 E2=     -0.2722733391D+00
     alpha-beta  T2 =       0.5265059275D+00 E2=     -0.1548546566D+01
     beta-beta   T2 =       0.9509050441D-01 E2=     -0.2722733391D+00
 The integrals were generated   1 times.
 ANorm=    0.1310224002D+01
 E2 =    -0.2093093244D+01 EUMP2 =    -0.67162776514670D+03
 Leave Link  906 at Thu May  6 12:14:01 2021, MaxMem=   524288000 cpu:             184.5 elap:              93.1
 (Enter /opt/gaussian/g16_legacy/l601.exe)
 Copying SCF densities to generalized density rwf, IOpCl= 0 IROHF=0.

 **********************************************************************

            Population analysis using the SCF density.

 **********************************************************************

 Orbital symmetries:
       Occupied  (A) (A) (A) (A) (A) (A) (A) (A) (A) (A) (A) (A)
                 (A) (A) (A) (A) (A) (A) (A) (A) (A) (A) (A) (A)
                 (A) (A) (A) (A) (A) (A) (A) (A) (A) (A) (A) (A)
                 (A) (A) (A) (A) (A) (A) (A) (A) (A) (A) (A) (A)
                 (A) (A) (A) (A) (A) (A) (A) (A) (A)
       Virtual   (A) (A) (A) (A) (A) (A) (A) (A) (A) (A) (A) (A)
                 (A) (A) (A) (A) (A) (A) (A) (A) (A) (A) (A) (A)
                 (A) (A) (A) (A) (A) (A) (A) (A) (A) (A) (A) (A)
                 (A) (A) (A) (A) (A) (A) (A) (A) (A) (A) (A) (A)
                 (A) (A) (A) (A) (A) (A) (A) (A) (A) (A) (A) (A)
                 (A) (A) (A) (A) (A) (A) (A) (A) (A) (A) (A) (A)
                 (A) (A) (A) (A) (A) (A) (A) (A) (A) (A) (A) (A)
                 (A) (A) (A) (A) (A) (A) (A) (A) (A) (A) (A) (A)
                 (A) (A) (A) (A) (A) (A) (A) (A) (A) (A) (A) (A)
                 (A) (A) (A) (A) (A) (A) (A) (A) (A) (A) (A) (A)
                 (A) (A) (A) (A) (A) (A) (A) (A) (A) (A) (A) (A)
                 (A) (A) (A) (A) (A) (A) (A) (A) (A) (A) (A) (A)
                 (A) (A) (A) (A) (A) (A) (A) (A) (A) (A) (A) (A)
                 (A) (A) (A) (A) (A) (A) (A) (A) (A) (A) (A) (A)
                 (A) (A) (A) (A) (A) (A) (A) (A) (A) (A) (A) (A)
                 (A) (A) (A) (A) (A) (A) (A) (A) (A) (A) (A) (A)
                 (A) (A) (A) (A) (A) (A) (A) (A) (A) (A) (A) (A)
                 (A) (A)
 The electronic state is 1-A.
 Alpha  occ. eigenvalues --  -20.60785 -20.60779 -15.85836 -11.31198 -11.27786
 Alpha  occ. eigenvalues --  -11.27740 -11.27527 -11.26827 -11.26760 -11.21831
 Alpha  occ. eigenvalues --  -11.21665 -11.21603 -11.21544 -11.21264 -11.21028
 Alpha  occ. eigenvalues --   -1.59859  -1.39412  -1.19391  -1.08787  -1.08603
 Alpha  occ. eigenvalues --   -1.04792  -1.03665  -0.96122  -0.95613  -0.87143
 Alpha  occ. eigenvalues --   -0.86186  -0.82443  -0.79744  -0.78430  -0.77487
 Alpha  occ. eigenvalues --   -0.72055  -0.71182  -0.70496  -0.65240  -0.65039
 Alpha  occ. eigenvalues --   -0.64792  -0.62133  -0.61080  -0.59491  -0.57747
 Alpha  occ. eigenvalues --   -0.55509  -0.55296  -0.53477  -0.52881  -0.52724
 Alpha  occ. eigenvalues --   -0.52277  -0.49986  -0.48814  -0.48809  -0.48034
 Alpha  occ. eigenvalues --   -0.46750  -0.45958  -0.45893  -0.44817  -0.43937
 Alpha  occ. eigenvalues --   -0.37357  -0.36326
 Alpha virt. eigenvalues --    0.05032   0.11246   0.16495   0.21340   0.22694
 Alpha virt. eigenvalues --    0.24161   0.26417   0.27059   0.27358   0.27942
 Alpha virt. eigenvalues --    0.28357   0.30743   0.31317   0.31707   0.31791
 Alpha virt. eigenvalues --    0.32606   0.33786   0.33998   0.34238   0.34522
 Alpha virt. eigenvalues --    0.34637   0.36109   0.36316   0.37000   0.39347
 Alpha virt. eigenvalues --    0.40437   0.43309   0.44270   0.44991   0.45174
 Alpha virt. eigenvalues --    0.46289   0.47618   0.49287   0.51227   0.56701
 Alpha virt. eigenvalues --    0.66110   0.67299   0.68426   0.69859   0.70500
 Alpha virt. eigenvalues --    0.70948   0.72895   0.75425   0.76932   0.77736
 Alpha virt. eigenvalues --    0.78150   0.78749   0.79326   0.79625   0.80335
 Alpha virt. eigenvalues --    0.80458   0.81604   0.82204   0.85686   0.86329
 Alpha virt. eigenvalues --    0.86503   0.88227   0.89262   0.91607   0.93543
 Alpha virt. eigenvalues --    0.95486   0.96860   0.97389   0.99880   1.01222
 Alpha virt. eigenvalues --    1.02053   1.03145   1.04355   1.06123   1.06736
 Alpha virt. eigenvalues --    1.08050   1.08458   1.08750   1.08944   1.10744
 Alpha virt. eigenvalues --    1.11614   1.14603   1.15958   1.16079   1.16843
 Alpha virt. eigenvalues --    1.17772   1.18526   1.18936   1.19539   1.20352
 Alpha virt. eigenvalues --    1.20691   1.20916   1.21550   1.21781   1.22923
 Alpha virt. eigenvalues --    1.23298   1.23515   1.24958   1.25471   1.26608
 Alpha virt. eigenvalues --    1.27877   1.28398   1.30659   1.31570   1.33129
 Alpha virt. eigenvalues --    1.35813   1.40309   1.40601   1.46495   1.47054
 Alpha virt. eigenvalues --    1.52540   1.53916   1.55897   1.60273   1.65398
 Alpha virt. eigenvalues --    1.65852   1.66862   1.67133   1.67311   1.67952
 Alpha virt. eigenvalues --    1.71297   1.72538   1.72613   1.73302   1.73687
 Alpha virt. eigenvalues --    1.75566   1.79521   1.81280   1.92561   1.96968
 Alpha virt. eigenvalues --    1.99405   1.99924   2.04458   2.04979   2.05314
 Alpha virt. eigenvalues --    2.10052   2.12485   2.12819   2.13712   2.15229
 Alpha virt. eigenvalues --    2.17723   2.21595   2.21792   2.22323   2.24822
 Alpha virt. eigenvalues --    2.25405   2.25720   2.26933   2.28269   2.32489
 Alpha virt. eigenvalues --    2.32949   2.33807   2.35831   2.36530   2.38046
 Alpha virt. eigenvalues --    2.39697   2.42881   2.43163   2.43353   2.45195
 Alpha virt. eigenvalues --    2.45897   2.47323   2.56647   2.56830   2.58132
 Alpha virt. eigenvalues --    2.58716   2.59474   2.59869   2.66960   2.67592
 Alpha virt. eigenvalues --    2.67717   2.70716   2.76837   2.77467   2.80130
 Alpha virt. eigenvalues --    2.81501   2.83506   2.91383   2.91929   2.92087
 Alpha virt. eigenvalues --    2.92275   2.95191   2.99208   3.00110   3.04707
 Alpha virt. eigenvalues --    3.04837   3.06855   3.10487   3.14103   3.18658
 Alpha virt. eigenvalues --    3.23460   3.24529   3.27559   3.43162   3.52886
 Alpha virt. eigenvalues --    3.76956   4.13392   4.28717   4.37840   4.49506
 Alpha virt. eigenvalues --    4.53202   4.53914   4.55791   4.63065   4.71808
 Alpha virt. eigenvalues --    4.73102   4.76971   4.80369   4.87820   4.99570
 Alpha virt. eigenvalues --    5.09013
          Condensed to atoms (all electrons):
               1          2          3          4          5          6
     1  C    5.084456   0.352141  -0.057313   0.395209   0.395714  -0.043853
     2  C    0.352141   5.064419   0.337179  -0.042032  -0.041786   0.399236
     3  C   -0.057313   0.337179   5.107235  -0.002830  -0.002849  -0.039665
     4  H    0.395209  -0.042032  -0.002830   0.572790  -0.032010  -0.003007
     5  H    0.395714  -0.041786  -0.002849  -0.032010   0.569151   0.004583
     6  H   -0.043853   0.399236  -0.039665  -0.003007   0.004583   0.563710
     7  H   -0.043683   0.398819  -0.039215   0.004600  -0.002995  -0.031424
     8  H   -0.003872  -0.039042   0.390328   0.000158   0.002671   0.004263
     9  H   -0.003783  -0.039129   0.391424   0.002707   0.000147  -0.002945
    10  H    0.004350  -0.035183   0.394356  -0.000060  -0.000059  -0.002489
    11  C    0.355926  -0.051977   0.004034  -0.041903  -0.041659  -0.003195
    12  C   -0.051991   0.003972  -0.000085  -0.003280  -0.003290  -0.000064
    13  C    0.004075  -0.000085   0.000001  -0.000054  -0.000053  -0.000000
    14  H   -0.041776  -0.003211  -0.000051  -0.002830   0.004483   0.002401
    15  H   -0.041549  -0.003199  -0.000052   0.004488  -0.002816   0.000233
    16  H   -0.003217  -0.000065  -0.000000   0.002442   0.000238   0.000017
    17  H   -0.003210  -0.000065  -0.000000   0.000238   0.002427  -0.000003
    18  H   -0.000069  -0.000001  -0.000000  -0.000001   0.000013   0.000000
    19  H   -0.000069  -0.000001  -0.000000   0.000013  -0.000001  -0.000002
    20  H   -0.000088   0.000001  -0.000000   0.000001   0.000001   0.000000
    21  C   -0.000001   0.000008  -0.000936   0.000016  -0.000000  -0.000001
    22  C   -0.000000  -0.000014  -0.000317   0.000002   0.000000   0.000002
    23  C    0.000000  -0.000018   0.000096  -0.000000   0.000000   0.000004
    24  C   -0.000000   0.000011   0.000397  -0.000000   0.000000   0.000002
    25  C    0.000000   0.000078   0.000062  -0.000001  -0.000000  -0.000001
    26  C   -0.000004   0.000077  -0.001120   0.000001  -0.000000  -0.000001
    27  H    0.000000  -0.000000  -0.000005   0.000001  -0.000000  -0.000000
    28  H   -0.000000   0.000000  -0.000002  -0.000000  -0.000000   0.000000
    29  H    0.000000  -0.000000   0.000001  -0.000000  -0.000000  -0.000000
    30  H    0.000000  -0.000001   0.000044  -0.000000  -0.000000   0.000000
    31  H   -0.000000  -0.000000   0.000015  -0.000000   0.000000   0.000000
    32  N   -0.000000   0.000000  -0.000044   0.000000   0.000000   0.000000
    33  O   -0.000000   0.000000  -0.000022   0.000000   0.000000  -0.000000
    34  O    0.000000  -0.000000   0.000000   0.000000  -0.000000  -0.000000
               7          8          9         10         11         12
     1  C   -0.043683  -0.003872  -0.003783   0.004350   0.355926  -0.051991
     2  C    0.398819  -0.039042  -0.039129  -0.035183  -0.051977   0.003972
     3  C   -0.039215   0.390328   0.391424   0.394356   0.004034  -0.000085
     4  H    0.004600   0.000158   0.002707  -0.000060  -0.041903  -0.003280
     5  H   -0.002995   0.002671   0.000147  -0.000059  -0.041659  -0.003290
     6  H   -0.031424   0.004263  -0.002945  -0.002489  -0.003195  -0.000064
     7  H    0.562762  -0.002953   0.004148  -0.002525  -0.003230  -0.000063
     8  H   -0.002953   0.556628  -0.029962  -0.027505  -0.000071  -0.000000
     9  H    0.004148  -0.029962   0.543523  -0.027337  -0.000067  -0.000001
    10  H   -0.002525  -0.027505  -0.027337   0.532636  -0.000085   0.000001
    11  C   -0.003230  -0.000071  -0.000067  -0.000085   5.083619   0.352049
    12  C   -0.000063  -0.000000  -0.000001   0.000001   0.352049   5.060975
    13  C   -0.000000  -0.000000   0.000000  -0.000000  -0.057337   0.340787
    14  H    0.000234  -0.000001   0.000013   0.000001   0.396271  -0.041972
    15  H    0.002382   0.000013  -0.000001   0.000001   0.396431  -0.041755
    16  H   -0.000003   0.000000  -0.000002   0.000000  -0.043787   0.398757
    17  H    0.000017  -0.000002   0.000000   0.000000  -0.043627   0.399001
    18  H   -0.000002   0.000000  -0.000000  -0.000000  -0.003784  -0.038861
    19  H    0.000000  -0.000000   0.000000  -0.000000  -0.003791  -0.038931
    20  H    0.000000  -0.000000  -0.000000   0.000000   0.004401  -0.035885
    21  C   -0.000000  -0.000006   0.001875   0.000005  -0.000000   0.000000
    22  C   -0.000000   0.000003   0.001064  -0.000022   0.000000  -0.000000
    23  C    0.000000   0.000001   0.000291  -0.000015  -0.000000  -0.000000
    24  C   -0.000000   0.000048  -0.001056   0.000170   0.000000  -0.000000
    25  C   -0.000001   0.000075  -0.001784   0.000455   0.000000   0.000000
    26  C   -0.000001   0.000174  -0.000029  -0.000006   0.000000   0.000000
    27  H    0.000000  -0.000000   0.000021   0.000000  -0.000000   0.000000
    28  H   -0.000000   0.000000   0.000003  -0.000000   0.000000  -0.000000
    29  H    0.000000  -0.000000   0.000003   0.000001  -0.000000   0.000000
    30  H    0.000000   0.000014   0.000007   0.000047  -0.000000   0.000000
    31  H   -0.000000   0.000040   0.000002  -0.000003   0.000000  -0.000000
    32  N   -0.000000   0.000001  -0.000018   0.000045   0.000000  -0.000000
    33  O    0.000000  -0.000000   0.000001   0.000093  -0.000000   0.000000
    34  O    0.000000  -0.000000   0.000000  -0.000008  -0.000000   0.000000
              13         14         15         16         17         18
     1  C    0.004075  -0.041776  -0.041549  -0.003217  -0.003210  -0.000069
     2  C   -0.000085  -0.003211  -0.003199  -0.000065  -0.000065  -0.000001
     3  C    0.000001  -0.000051  -0.000052  -0.000000  -0.000000  -0.000000
     4  H   -0.000054  -0.002830   0.004488   0.002442   0.000238  -0.000001
     5  H   -0.000053   0.004483  -0.002816   0.000238   0.002427   0.000013
     6  H   -0.000000   0.002401   0.000233   0.000017  -0.000003   0.000000
     7  H   -0.000000   0.000234   0.002382  -0.000003   0.000017  -0.000002
     8  H   -0.000000  -0.000001   0.000013   0.000000  -0.000002   0.000000
     9  H    0.000000   0.000013  -0.000001  -0.000002   0.000000  -0.000000
    10  H   -0.000000   0.000001   0.000001   0.000000   0.000000  -0.000000
    11  C   -0.057337   0.396271   0.396431  -0.043787  -0.043627  -0.003784
    12  C    0.340787  -0.041972  -0.041755   0.398757   0.399001  -0.038861
    13  C    5.097020  -0.002846  -0.002842  -0.039968  -0.039828   0.391481
    14  H   -0.002846   0.566478  -0.031324  -0.002997   0.004574   0.000156
    15  H   -0.002842  -0.031324   0.564573   0.004572  -0.002976   0.002610
    16  H   -0.039968  -0.002997   0.004572   0.567211  -0.031875   0.004228
    17  H   -0.039828   0.004574  -0.002976  -0.031875   0.564953  -0.002893
    18  H    0.391481   0.000156   0.002610   0.004228  -0.002893   0.547443
    19  H    0.391341   0.002620   0.000157  -0.002901   0.004221  -0.029036
    20  H    0.394038  -0.000059  -0.000058  -0.002512  -0.002510  -0.027434
    21  C    0.000000  -0.000000   0.000000  -0.000000  -0.000000   0.000000
    22  C    0.000000  -0.000000   0.000000  -0.000000  -0.000000   0.000000
    23  C   -0.000000   0.000000  -0.000000  -0.000000   0.000000  -0.000000
    24  C    0.000000   0.000000  -0.000000   0.000000   0.000000  -0.000000
    25  C   -0.000000   0.000000  -0.000000  -0.000000   0.000000  -0.000000
    26  C    0.000000  -0.000000  -0.000000   0.000000  -0.000000   0.000000
    27  H   -0.000000  -0.000000   0.000000   0.000000  -0.000000   0.000000
    28  H    0.000000  -0.000000  -0.000000   0.000000  -0.000000   0.000000
    29  H   -0.000000   0.000000   0.000000  -0.000000   0.000000  -0.000000
    30  H   -0.000000   0.000000   0.000000   0.000000  -0.000000  -0.000000
    31  H    0.000000   0.000000   0.000000   0.000000  -0.000000   0.000000
    32  N    0.000000  -0.000000   0.000000   0.000000  -0.000000   0.000000
    33  O   -0.000000  -0.000000   0.000000  -0.000000  -0.000000   0.000000
    34  O    0.000000  -0.000000   0.000000  -0.000000  -0.000000   0.000000
              19         20         21         22         23         24
     1  C   -0.000069  -0.000088  -0.000001  -0.000000   0.000000  -0.000000
     2  C   -0.000001   0.000001   0.000008  -0.000014  -0.000018   0.000011
     3  C   -0.000000  -0.000000  -0.000936  -0.000317   0.000096   0.000397
     4  H    0.000013   0.000001   0.000016   0.000002  -0.000000  -0.000000
     5  H   -0.000001   0.000001  -0.000000   0.000000   0.000000   0.000000
     6  H   -0.000002   0.000000  -0.000001   0.000002   0.000004   0.000002
     7  H    0.000000   0.000000  -0.000000  -0.000000   0.000000  -0.000000
     8  H   -0.000000  -0.000000  -0.000006   0.000003   0.000001   0.000048
     9  H    0.000000  -0.000000   0.001875   0.001064   0.000291  -0.001056
    10  H   -0.000000   0.000000   0.000005  -0.000022  -0.000015   0.000170
    11  C   -0.003791   0.004401  -0.000000   0.000000  -0.000000   0.000000
    12  C   -0.038931  -0.035885   0.000000  -0.000000  -0.000000  -0.000000
    13  C    0.391341   0.394038   0.000000   0.000000  -0.000000   0.000000
    14  H    0.002620  -0.000059  -0.000000  -0.000000   0.000000   0.000000
    15  H    0.000157  -0.000058   0.000000   0.000000  -0.000000  -0.000000
    16  H   -0.002901  -0.002512  -0.000000  -0.000000  -0.000000   0.000000
    17  H    0.004221  -0.002510  -0.000000  -0.000000   0.000000   0.000000
    18  H   -0.029036  -0.027434   0.000000   0.000000  -0.000000  -0.000000
    19  H    0.548456  -0.027510  -0.000000  -0.000000  -0.000000   0.000000
    20  H   -0.027510   0.537526  -0.000000   0.000000   0.000000  -0.000000
    21  C   -0.000000  -0.000000   4.879032   0.541632  -0.045913  -0.028586
    22  C   -0.000000   0.000000   0.541632   4.933112   0.522815  -0.040431
    23  C   -0.000000   0.000000  -0.045913   0.522815   4.919399   0.548409
    24  C    0.000000  -0.000000  -0.028586  -0.040431   0.548409   4.820512
    25  C    0.000000   0.000000  -0.046043  -0.029979  -0.052933   0.548276
    26  C   -0.000000  -0.000000   0.542111  -0.044510  -0.029969  -0.040099
    27  H    0.000000   0.000000   0.381424  -0.028044   0.002169   0.000218
    28  H   -0.000000  -0.000000  -0.027762   0.382614  -0.027322   0.001557
    29  H   -0.000000   0.000000   0.001924  -0.024106   0.368511  -0.019561
    30  H   -0.000000   0.000000   0.001928  -0.000059   0.002560  -0.019588
    31  H   -0.000000  -0.000000  -0.027720   0.002335   0.000201   0.001563
    32  N    0.000000  -0.000000   0.000005   0.001515  -0.044604   0.243844
    33  O    0.000000   0.000000  -0.000004  -0.000028   0.003710  -0.088160
    34  O   -0.000000   0.000000  -0.000004   0.000776   0.004058  -0.088008
              25         26         27         28         29         30
     1  C    0.000000  -0.000004   0.000000  -0.000000   0.000000   0.000000
     2  C    0.000078   0.000077  -0.000000   0.000000  -0.000000  -0.000001
     3  C    0.000062  -0.001120  -0.000005  -0.000002   0.000001   0.000044
     4  H   -0.000001   0.000001   0.000001  -0.000000  -0.000000  -0.000000
     5  H   -0.000000  -0.000000  -0.000000  -0.000000  -0.000000  -0.000000
     6  H   -0.000001  -0.000001  -0.000000   0.000000  -0.000000   0.000000
     7  H   -0.000001  -0.000001   0.000000  -0.000000   0.000000   0.000000
     8  H    0.000075   0.000174  -0.000000   0.000000  -0.000000   0.000014
     9  H   -0.001784  -0.000029   0.000021   0.000003   0.000003   0.000007
    10  H    0.000455  -0.000006   0.000000  -0.000000   0.000001   0.000047
    11  C    0.000000   0.000000  -0.000000   0.000000  -0.000000  -0.000000
    12  C    0.000000   0.000000   0.000000  -0.000000   0.000000   0.000000
    13  C   -0.000000   0.000000  -0.000000   0.000000  -0.000000  -0.000000
    14  H    0.000000  -0.000000  -0.000000  -0.000000   0.000000   0.000000
    15  H   -0.000000  -0.000000   0.000000  -0.000000   0.000000   0.000000
    16  H   -0.000000   0.000000   0.000000   0.000000  -0.000000   0.000000
    17  H    0.000000  -0.000000  -0.000000  -0.000000   0.000000  -0.000000
    18  H   -0.000000   0.000000   0.000000   0.000000  -0.000000  -0.000000
    19  H    0.000000  -0.000000   0.000000  -0.000000  -0.000000  -0.000000
    20  H    0.000000  -0.000000   0.000000  -0.000000   0.000000   0.000000
    21  C   -0.046043   0.542111   0.381424  -0.027762   0.001924   0.001928
    22  C   -0.029979  -0.044510  -0.028044   0.382614  -0.024106  -0.000059
    23  C   -0.052933  -0.029969   0.002169  -0.027322   0.368511   0.002560
    24  C    0.548276  -0.040099   0.000218   0.001557  -0.019561  -0.019588
    25  C    4.916144   0.522719   0.002176   0.000202   0.002563   0.368518
    26  C    0.522719   4.932626  -0.027977   0.002323  -0.000061  -0.024003
    27  H    0.002176  -0.027977   0.446706  -0.001194  -0.000071  -0.000071
    28  H    0.000202   0.002323  -0.001194   0.447237  -0.001108   0.000007
    29  H    0.002563  -0.000061  -0.000071  -0.001108   0.392565  -0.000075
    30  H    0.368518  -0.024003  -0.000071   0.000007  -0.000075   0.392286
    31  H   -0.027210   0.382649  -0.001201  -0.000093   0.000007  -0.001115
    32  N   -0.044666   0.001516   0.000002  -0.000049  -0.005370  -0.005355
    33  O    0.004062   0.000776   0.000000   0.000000   0.000048   0.009003
    34  O    0.003707  -0.000028   0.000000  -0.000001   0.009047   0.000048
              31         32         33         34
     1  C   -0.000000  -0.000000  -0.000000   0.000000
     2  C   -0.000000   0.000000   0.000000  -0.000000
     3  C    0.000015  -0.000044  -0.000022   0.000000
     4  H   -0.000000   0.000000   0.000000   0.000000
     5  H    0.000000   0.000000   0.000000  -0.000000
     6  H    0.000000   0.000000  -0.000000  -0.000000
     7  H   -0.000000  -0.000000   0.000000   0.000000
     8  H    0.000040   0.000001  -0.000000  -0.000000
     9  H    0.000002  -0.000018   0.000001   0.000000
    10  H   -0.000003   0.000045   0.000093  -0.000008
    11  C    0.000000   0.000000  -0.000000  -0.000000
    12  C   -0.000000  -0.000000   0.000000   0.000000
    13  C    0.000000   0.000000  -0.000000   0.000000
    14  H    0.000000  -0.000000  -0.000000  -0.000000
    15  H    0.000000   0.000000   0.000000   0.000000
    16  H    0.000000   0.000000  -0.000000  -0.000000
    17  H   -0.000000  -0.000000  -0.000000  -0.000000
    18  H    0.000000   0.000000   0.000000   0.000000
    19  H   -0.000000   0.000000   0.000000  -0.000000
    20  H   -0.000000  -0.000000   0.000000   0.000000
    21  C   -0.027720   0.000005  -0.000004  -0.000004
    22  C    0.002335   0.001515  -0.000028   0.000776
    23  C    0.000201  -0.044604   0.003710   0.004058
    24  C    0.001563   0.243844  -0.088160  -0.088008
    25  C   -0.027210  -0.044666   0.004062   0.003707
    26  C    0.382649   0.001516   0.000776  -0.000028
    27  H   -0.001201   0.000002   0.000000   0.000000
    28  H   -0.000093  -0.000049   0.000000  -0.000001
    29  H    0.000007  -0.005370   0.000048   0.009047
    30  H   -0.001115  -0.005355   0.009003   0.000048
    31  H    0.446737  -0.000049  -0.000001   0.000000
    32  N   -0.000049   5.735700   0.315054   0.314858
    33  O   -0.000001   0.315054   8.303338  -0.087599
    34  O    0.000000   0.314858  -0.087599   8.303674
 Mulliken charges:
               1
     1  C   -0.297391
     2  C   -0.300133
     3  C   -0.480665
     4  H    0.145343
     5  H    0.148090
     6  H    0.152200
     7  H    0.153132
     8  H    0.148998
     9  H    0.160883
    10  H    0.163137
    11  C   -0.298218
    12  C   -0.299365
    13  C   -0.475730
    14  H    0.149835
    15  H    0.151112
    16  H    0.149861
    17  H    0.151557
    18  H    0.156148
    19  H    0.155432
    20  H    0.160088
    21  C   -0.172984
    22  C   -0.218360
    23  C   -0.171449
    24  C    0.160483
    25  C   -0.166420
    26  C   -0.217165
    27  H    0.225845
    28  H    0.223588
    29  H    0.275683
    30  H    0.275805
    31  H    0.223843
    32  N    0.487613
    33  O   -0.460272
    34  O   -0.460522
 Sum of Mulliken charges =  -0.00000
 Mulliken charges with hydrogens summed into heavy atoms:
               1
     1  C   -0.003958
     2  C    0.005198
     3  C   -0.007647
    11  C    0.002729
    12  C    0.002052
    13  C   -0.004063
    21  C    0.052861
    22  C    0.005228
    23  C    0.104234
    24  C    0.160483
    25  C    0.109385
    26  C    0.006678
    32  N    0.487613
    33  O   -0.460272
    34  O   -0.460522
 Electronic spatial extent (au):  <R**2>=           6854.9767
 Charge=             -0.0000 electrons
 Dipole moment (field-independent basis, Debye):
    X=              2.6522    Y=              4.4112    Z=             -0.5713  Tot=              5.1787
 Quadrupole moment (field-independent basis, Debye-Ang):
   XX=           -113.4232   YY=            -93.8561   ZZ=            -89.4986
   XY=            -13.4738   XZ=              1.0509   YZ=              1.7066
 Traceless Quadrupole moment (field-independent basis, Debye-Ang):
   XX=            -14.4973   YY=              5.0699   ZZ=              9.4274
   XY=            -13.4738   XZ=              1.0509   YZ=              1.7066
 Octapole moment (field-independent basis, Debye-Ang**2):
  XXX=             46.9359  YYY=             13.4591  ZZZ=             -1.5973  XYY=             13.8675
  XXY=             44.8244  XXZ=            -11.1241  XZZ=            -12.6637  YZZ=              8.5835
  YYZ=              2.2156  XYZ=             -4.6656
 Hexadecapole moment (field-independent basis, Debye-Ang**3):
 XXXX=          -8296.1371 YYYY=           -988.4047 ZZZZ=           -475.1416 XXXY=           -145.3474
 XXXZ=            -10.1376 YYYX=             10.9069 YYYZ=              4.0432 ZZZX=             -2.7987
 ZZZY=              6.5638 XXYY=          -1588.8867 XXZZ=          -1394.9272 YYZZ=           -250.5359
 XXYZ=             35.6362 YYXZ=            -13.7055 ZZXY=            -16.0848
 N-N= 9.151694144242D+02 E-N=-3.393379218341D+03  KE= 6.679700974885D+02
 Leave Link  601 at Thu May  6 12:14:03 2021, MaxMem=   524288000 cpu:               1.4 elap:               1.6
 (Enter /opt/gaussian/g16_legacy/l9999.exe)
 1\1\GINC-TRUENO90\SP\RMP2-FC\6-31G(d)\C12H19N1O2\JRAMOS\06-May-2021\0\
 \#p 6-31g* mp2\\Input file generated by CHIRIPA (05-May-2021 14:53:16)
 \\0,1\C,0,-0.666,-0.374,0.\C,0,-1.882,0.553,0.\C,0,-3.207,-0.21,0.\H,0
 ,-0.713,-1.03,-0.88\H,0,-0.713,-1.029,0.881\H,0,-1.832,1.207,-0.88\H,0
 ,-1.832,1.207,0.88\H,0,-3.283,-0.85,0.885\H,0,-3.283,-0.85,-0.885\H,0,
 -4.063,0.472,0.\C,0,0.666,0.374,0.\C,0,1.882,-0.553,0.\C,0,3.207,0.21,
 0.\H,0,0.713,1.029,-0.881\H,0,0.713,1.03,0.88\H,0,1.832,-1.207,-0.88\H
 ,0,1.832,-1.207,0.88\H,0,3.283,0.85,0.885\H,0,3.283,0.85,-0.885\H,0,4.
 063,-0.472,0.\C,0,-4.592536,-3.020544,-2.710116\C,0,-4.908311,-2.05760
 5,-3.674251\C,0,-5.842334,-1.054964,-3.397016\C,0,-6.4442,-1.045145,-2
 .139657\C,0,-6.150682,-1.990542,-1.158147\C,0,-5.213634,-2.984004,-1.4
 5735\H,0,-3.865789,-3.795855,-2.934012\H,0,-4.427526,-2.083524,-4.6480
 16\H,0,-6.105413,-0.297134,-4.124959\H,0,-6.646472,-1.938794,-0.196413
 \H,0,-4.97035,-3.730539,-0.706656\N,0,-7.43461,0.011448,-1.834532\O,0,
 -7.950908,-0.001777,-0.719231\O,0,-7.675841,0.832823,-2.716455\\Versio
 n=EM64L-G16RevA.03\State=1-A\HF=-669.5346719\MP2=-671.6277651\RMSD=6.5
 41e-09\PG=C01 [X(C12H19N1O2)]\\@


 "WOULD YOU TELL ME PLEASE, WHICH WAY I OUGHT TO WALK FROM HERE?"
 "THAT DEPENDS A GREAT DEAL ON WHERE YOU WANT TO GO," SAID THE CAT.
 "I DON'T MUCH CARE WHERE -- ", SAID ALICE.
 "THEN IT DOESN'T MATTER WHICH WAY YOU WALK," SAID THE CAT.

                                      -- LEWIS CARROLL
 Job cpu time:       0 days  0 hours  5 minutes  2.8 seconds.
 Elapsed time:       0 days  0 hours  2 minutes 35.6 seconds.
 File lengths (MBytes):  RWF=     43 Int=      0 D2E=      0 Chk=      6 Scr=      1
 Normal termination of Gaussian 16 at Thu May  6 12:14:03 2021.
