 Entering Gaussian System, Link 0=/opt/gaussian/g16_legacy/g16
 Input=gaussian_02738_2_1.com
 Output=gaussian_02738_2_1.log
 Initial command:
 /opt/gaussian/g16_legacy/l1.exe "/scratch-local/jramos/2595290/Gau-20769.inp" -scrdir="/scratch-local/jramos/2595290/"
 Entering Link 1 = /opt/gaussian/g16_legacy/l1.exe PID=     20770.
  
 Copyright (c) 1988,1990,1992,1993,1995,1998,2003,2009,2016,
            Gaussian, Inc.  All Rights Reserved.
  
 This is part of the Gaussian(R) 16 program.  It is based on
 the Gaussian(R) 09 system (copyright 2009, Gaussian, Inc.),
 the Gaussian(R) 03 system (copyright 2003, Gaussian, Inc.),
 the Gaussian(R) 98 system (copyright 1998, Gaussian, Inc.),
 the Gaussian(R) 94 system (copyright 1995, Gaussian, Inc.),
 the Gaussian 92(TM) system (copyright 1992, Gaussian, Inc.),
 the Gaussian 90(TM) system (copyright 1990, Gaussian, Inc.),
 the Gaussian 88(TM) system (copyright 1988, Gaussian, Inc.),
 the Gaussian 86(TM) system (copyright 1986, Carnegie Mellon
 University), and the Gaussian 82(TM) system (copyright 1983,
 Carnegie Mellon University). Gaussian is a federally registered
 trademark of Gaussian, Inc.
  
 This software contains proprietary and confidential information,
 including trade secrets, belonging to Gaussian, Inc.
  
 This software is provided under written license and may be
 used, copied, transmitted, or stored only in accord with that
 written license.
  
 The following legend is applicable only to US Government
 contracts under FAR:
  
                    RESTRICTED RIGHTS LEGEND
  
 Use, reproduction and disclosure by the US Government is
 subject to restrictions as set forth in subparagraphs (a)
 and (c) of the Commercial Computer Software - Restricted
 Rights clause in FAR 52.227-19.
  
 Gaussian, Inc.
 340 Quinnipiac St., Bldg. 40, Wallingford CT 06492
  
  
 ---------------------------------------------------------------
 Warning -- This program may not be used in any manner that
 competes with the business of Gaussian, Inc. or will provide
 assistance to any competitor of Gaussian, Inc.  The licensee
 of this program is prohibited from giving any competitor of
 Gaussian, Inc. access to this program.  By using this program,
 the user acknowledges that Gaussian, Inc. is engaged in the
 business of creating and licensing software in the field of
 computational chemistry and represents and warrants to the
 licensee that it is not a competitor of Gaussian, Inc. and that
 it will not use this program in any manner prohibited above.
 ---------------------------------------------------------------
  

 Cite this work as:
 Gaussian 16, Revision A.03,
 M. J. Frisch, G. W. Trucks, H. B. Schlegel, G. E. Scuseria, 
 M. A. Robb, J. R. Cheeseman, G. Scalmani, V. Barone, 
 G. A. Petersson, H. Nakatsuji, X. Li, M. Caricato, A. V. Marenich, 
 J. Bloino, B. G. Janesko, R. Gomperts, B. Mennucci, H. P. Hratchian, 
 J. V. Ortiz, A. F. Izmaylov, J. L. Sonnenberg, D. Williams-Young, 
 F. Ding, F. Lipparini, F. Egidi, J. Goings, B. Peng, A. Petrone, 
 T. Henderson, D. Ranasinghe, V. G. Zakrzewski, J. Gao, N. Rega, 
 G. Zheng, W. Liang, M. Hada, M. Ehara, K. Toyota, R. Fukuda, 
 J. Hasegawa, M. Ishida, T. Nakajima, Y. Honda, O. Kitao, H. Nakai, 
 T. Vreven, K. Throssell, J. A. Montgomery, Jr., J. E. Peralta, 
 F. Ogliaro, M. J. Bearpark, J. J. Heyd, E. N. Brothers, K. N. Kudin, 
 V. N. Staroverov, T. A. Keith, R. Kobayashi, J. Normand, 
 K. Raghavachari, A. P. Rendell, J. C. Burant, S. S. Iyengar, 
 J. Tomasi, M. Cossi, J. M. Millam, M. Klene, C. Adamo, R. Cammi, 
 J. W. Ochterski, R. L. Martin, K. Morokuma, O. Farkas, 
 J. B. Foresman, and D. J. Fox, Gaussian, Inc., Wallingford CT, 2016.
 
 ******************************************
 Gaussian 16:  EM64L-G16RevA.03 25-Dec-2016
                 6-May-2021 
 ******************************************
 %chk=gaussian_02738_2_1.chk
 %nproc=2
 Will use up to    2 processors via shared memory.
 %mem=4000Mb
 -------------
 #p 6-31g* mp2
 -------------
 1/38=1,172=1/1;
 2/12=2,17=6,18=5,40=1/2;
 3/5=1,6=6,7=1,11=9,25=1,30=1/1,2,3;
 4//1;
 5/5=2,38=5/2;
 8/10=2/1;
 9/16=-3/6;
 6/7=2,8=2,9=2,10=2/1;
 99/5=1,9=1/99;
 Leave Link    1 at Thu May  6 07:49:07 2021, MaxMem=   524288000 cpu:               0.0 elap:               0.1
 (Enter /opt/gaussian/g16_legacy/l101.exe)
 ------------------------------------------------------
 Input file generated by CHIRIPA (05-May-2021 14:55:22)
 ------------------------------------------------------
 Symbolic Z-matrix:
 Charge =  0 Multiplicity = 1
 C                     1.91414   0.        0. 
 C                     1.21414   1.211     0. 
 C                    -0.18386   1.223     0. 
 C                    -0.85286   0.        0. 
 C                    -0.18386  -1.223     0. 
 C                     1.21414  -1.211     0. 
 H                     3.00014   0.        0. 
 H                     1.75514   2.153     0. 
 H                    -0.75086   2.146     0. 
 H                    -0.75086  -2.146     0. 
 H                     1.75514  -2.153     0. 
 N                    -2.33286   0.        0. 
 O                    -2.89886  -1.091     0. 
 O                    -2.89886   1.091     0. 
 C                    -1.05761   6.87231  -0.21774 
 C                    -0.14938   5.81377  -0.84431 
 C                     0.89332   5.27458   0.1354 
 H                    -0.44064   7.70089   0.1561 
 H                    -1.56364   6.44016   0.65667 
 H                     0.35374   6.24737  -1.71809 
 H                    -0.7686    4.98771  -1.21687 
 H                     0.40661   4.81679   1.00266 
 H                     1.53532   6.08361   0.4986 
 H                     1.53179   4.51923  -0.33328 
 C                    -2.10525   7.42094  -1.18478 
 C                    -3.01348   8.47948  -0.55821 
 C                    -4.05618   9.01867  -1.53792 
 H                    -1.59922   7.85309  -2.05919 
 H                    -2.72222   6.59237  -1.55862 
 H                    -2.39426   9.30554  -0.18565 
 H                    -3.5166    8.04588   0.31557 
 H                    -4.69818   8.20965  -1.90112 
 H                    -3.56947   9.47646  -2.40518 
 H                    -4.69465   9.77402  -1.06924 
 
 ITRead=  0  0  0  0  0  0  0  0  0  0  0  0  0  0  0  0  0  0  0  0
 ITRead=  0  0  0  0  0  0  0  0  0  0  0  0  0  0
 MicOpt= -1 -1 -1 -1 -1 -1 -1 -1 -1 -1 -1 -1 -1 -1 -1 -1 -1 -1 -1 -1
 MicOpt= -1 -1 -1 -1 -1 -1 -1 -1 -1 -1 -1 -1 -1 -1
 NAtoms=     34 NQM=       34 NQMF=       0 NMMI=      0 NMMIF=      0
                NMic=       0 NMicF=      0.
                    Isotopes and Nuclear Properties:
 (Nuclear quadrupole moments (NQMom) in fm**2, nuclear magnetic moments (NMagM)
  in nuclear magnetons)

  Atom         1           2           3           4           5           6           7           8           9          10
 IAtWgt=          12          12          12          12          12          12           1           1           1           1
 AtmWgt=  12.0000000  12.0000000  12.0000000  12.0000000  12.0000000  12.0000000   1.0078250   1.0078250   1.0078250   1.0078250
 NucSpn=           0           0           0           0           0           0           1           1           1           1
 AtZEff=  -0.0000000  -0.0000000  -0.0000000  -0.0000000  -0.0000000  -0.0000000  -0.0000000  -0.0000000  -0.0000000  -0.0000000
 NQMom=    0.0000000   0.0000000   0.0000000   0.0000000   0.0000000   0.0000000   0.0000000   0.0000000   0.0000000   0.0000000
 NMagM=    0.0000000   0.0000000   0.0000000   0.0000000   0.0000000   0.0000000   2.7928460   2.7928460   2.7928460   2.7928460
 AtZNuc=   6.0000000   6.0000000   6.0000000   6.0000000   6.0000000   6.0000000   1.0000000   1.0000000   1.0000000   1.0000000

  Atom        11          12          13          14          15          16          17          18          19          20
 IAtWgt=           1          14          16          16          12          12          12           1           1           1
 AtmWgt=   1.0078250  14.0030740  15.9949146  15.9949146  12.0000000  12.0000000  12.0000000   1.0078250   1.0078250   1.0078250
 NucSpn=           1           2           0           0           0           0           0           1           1           1
 AtZEff=  -0.0000000  -0.0000000  -0.0000000  -0.0000000  -0.0000000  -0.0000000  -0.0000000  -0.0000000  -0.0000000  -0.0000000
 NQMom=    0.0000000   2.0440000   0.0000000   0.0000000   0.0000000   0.0000000   0.0000000   0.0000000   0.0000000   0.0000000
 NMagM=    2.7928460   0.4037610   0.0000000   0.0000000   0.0000000   0.0000000   0.0000000   2.7928460   2.7928460   2.7928460
 AtZNuc=   1.0000000   7.0000000   8.0000000   8.0000000   6.0000000   6.0000000   6.0000000   1.0000000   1.0000000   1.0000000

  Atom        21          22          23          24          25          26          27          28          29          30
 IAtWgt=           1           1           1           1          12          12          12           1           1           1
 AtmWgt=   1.0078250   1.0078250   1.0078250   1.0078250  12.0000000  12.0000000  12.0000000   1.0078250   1.0078250   1.0078250
 NucSpn=           1           1           1           1           0           0           0           1           1           1
 AtZEff=  -0.0000000  -0.0000000  -0.0000000  -0.0000000  -0.0000000  -0.0000000  -0.0000000  -0.0000000  -0.0000000  -0.0000000
 NQMom=    0.0000000   0.0000000   0.0000000   0.0000000   0.0000000   0.0000000   0.0000000   0.0000000   0.0000000   0.0000000
 NMagM=    2.7928460   2.7928460   2.7928460   2.7928460   0.0000000   0.0000000   0.0000000   2.7928460   2.7928460   2.7928460
 AtZNuc=   1.0000000   1.0000000   1.0000000   1.0000000   6.0000000   6.0000000   6.0000000   1.0000000   1.0000000   1.0000000

  Atom        31          32          33          34
 IAtWgt=           1           1           1           1
 AtmWgt=   1.0078250   1.0078250   1.0078250   1.0078250
 NucSpn=           1           1           1           1
 AtZEff=  -0.0000000  -0.0000000  -0.0000000  -0.0000000
 NQMom=    0.0000000   0.0000000   0.0000000   0.0000000
 NMagM=    2.7928460   2.7928460   2.7928460   2.7928460
 AtZNuc=   1.0000000   1.0000000   1.0000000   1.0000000
 Leave Link  101 at Thu May  6 07:49:08 2021, MaxMem=   524288000 cpu:               0.1 elap:               0.1
 (Enter /opt/gaussian/g16_legacy/l202.exe)
                          Input orientation:                          
 ---------------------------------------------------------------------
 Center     Atomic      Atomic             Coordinates (Angstroms)
 Number     Number       Type             X           Y           Z
 ---------------------------------------------------------------------
      1          6           0        1.914143    0.000000    0.000000
      2          6           0        1.214143    1.211000    0.000000
      3          6           0       -0.183857    1.223000    0.000000
      4          6           0       -0.852857    0.000000    0.000000
      5          6           0       -0.183857   -1.223000    0.000000
      6          6           0        1.214143   -1.211000    0.000000
      7          1           0        3.000143    0.000000    0.000000
      8          1           0        1.755143    2.153000    0.000000
      9          1           0       -0.750857    2.146000    0.000000
     10          1           0       -0.750857   -2.146000    0.000000
     11          1           0        1.755143   -2.153000    0.000000
     12          7           0       -2.332857    0.000000    0.000000
     13          8           0       -2.898857   -1.091000    0.000000
     14          8           0       -2.898857    1.091000    0.000000
     15          6           0       -1.057611    6.872309   -0.217735
     16          6           0       -0.149378    5.813774   -0.844314
     17          6           0        0.893320    5.274580    0.135402
     18          1           0       -0.440640    7.700885    0.156099
     19          1           0       -1.563642    6.440162    0.656666
     20          1           0        0.353735    6.247370   -1.718092
     21          1           0       -0.768599    4.987709   -1.216872
     22          1           0        0.406612    4.816788    1.002664
     23          1           0        1.535323    6.083606    0.498597
     24          1           0        1.531788    4.519228   -0.333280
     25          6           0       -2.105249    7.420944   -1.184784
     26          6           0       -3.013482    8.479479   -0.558205
     27          6           0       -4.056180    9.018673   -1.537922
     28          1           0       -1.599219    7.853090   -2.059186
     29          1           0       -2.722220    6.592367   -1.558619
     30          1           0       -2.394262    9.305543   -0.185647
     31          1           0       -3.516595    8.045882    0.315573
     32          1           0       -4.698183    8.209646   -1.901116
     33          1           0       -3.569472    9.476464   -2.405183
     34          1           0       -4.694648    9.774024   -1.069239
 ---------------------------------------------------------------------
                    Distance matrix (angstroms):
                    1          2          3          4          5
     1  C    0.000000
     2  C    1.398757   0.000000
     3  C    2.428443   1.398052   0.000000
     4  C    2.767000   2.395623   1.394019   0.000000
     5  C    2.428443   2.806913   2.446000   1.394019   0.000000
     6  C    1.398757   2.422000   2.806913   2.395623   1.398052
     7  H    1.086000   2.157850   3.410804   3.853000   3.410804
     8  H    2.158863   1.086299   2.150493   3.381874   3.893212
     9  H    3.421628   2.176109   1.083244   2.148423   3.416380
    10  H    3.421628   3.889817   3.416380   2.148423   1.083244
    11  H    2.158863   3.407224   3.893212   3.381874   2.150493
    12  N    4.247000   3.748030   2.472636   1.480000   2.472636
    13  O    4.935104   4.713382   3.567327   2.318706   2.718207
    14  O    4.935104   4.114750   2.718207   2.318706   3.567327
    15  C    7.490485   6.103990   5.720625   6.878805   8.145237
    16  C    6.226633   4.874175   4.667897   5.916732   7.087330
    17  C    5.374161   4.078473   4.194514   5.557757   6.587654
    18  H    8.054378   6.699349   6.484851   7.713489   8.928943
    19  H    7.348598   5.957469   5.436340   6.512458   7.814030
    20  H    6.664559   5.390470   5.337147   6.590701   7.684222
    21  H    5.792678   4.435716   3.999467   5.134697   6.355754
    22  H    5.145817   3.828727   3.777473   5.078685   6.150856
    23  H    6.115747   4.908569   5.179736   6.554561   7.522677
    24  H    4.547603   3.340112   3.730902   5.120647   6.002308
    25  C    8.522302   7.140412   6.596209   7.618570   8.933825
    26  C    9.823169   8.427051   7.808640   8.768207  10.122078
    27  C   10.924579   9.544698   8.839265   9.693449  11.056761
    28  H    8.846185   7.501507   7.085308   8.152811   9.413762
    29  H    8.208804   6.847142   6.140251   7.027312   8.363764
    30  H   10.256215   8.864349   8.381399   9.434168  10.759673
    31  H    9.712297   8.318358   7.599898   8.481232   9.854892
    32  H   10.711460   9.356863   8.532679   9.262778  10.628650
    33  H   11.209742   9.848136   9.239424  10.147328  11.477187
    34  H   11.846980  10.458607   9.726794  10.556239  11.934196
                    6          7          8          9         10
     6  C    0.000000
     7  H    2.157850   0.000000
     8  H    3.407224   2.487053   0.000000
     9  H    3.889817   4.321495   2.506010   0.000000
    10  H    2.176109   4.321495   4.976087   4.292000   0.000000
    11  H    1.086299   2.487053   4.306000   4.976087   2.506010
    12  N    3.748030   5.333000   4.620298   2.666091   2.666091
    13  O    4.114750   5.999040   5.673028   3.884852   2.393100
    14  O    4.713382   5.999040   4.773632   2.393100   3.884852
    15  C    8.399295   7.983822   5.498261   4.741255   9.026151
    16  C    7.205519   6.665757   4.212046   3.811458   8.026995
    17  C    6.494922   5.681393   3.241193   3.536900   7.601754
    18  H    9.065559   8.436053   5.968656   5.565730   9.853007
    19  H    8.166246   7.920545   5.461255   4.419463   8.649509
    20  H    7.701910   6.998925   4.656141   4.581834   8.638323
    21  H    6.620879   6.368786   3.985678   3.091343   7.236774
    22  H    6.163738   5.561761   3.149546   3.078665   7.129200
    23  H    7.318677   6.277305   3.968196   4.580389   8.555795
    24  H    5.748694   4.763461   2.400000   3.309646   7.053142
    25  C    9.323762   9.085106   6.637588   5.573430   9.734706
    26  C   10.587247  10.410420   7.942022   6.748631  10.878045
    27  C   11.609811  11.553933   9.125467   7.779717  11.744798
    28  H    9.711487   9.330884   6.926978   6.126242  10.244109
    29  H    8.877882   8.867583   6.494925   5.107421   9.092559
    30  H   11.119925  10.757658   8.271088   7.348081  11.570354
    31  H   10.400449  10.358749   7.913082   6.523611  10.565195
    32  H   11.283546  11.413884   9.052216   7.480871  11.244333
    33  H   11.953651  11.779139   9.368541   8.213720  12.198818
    34  H   12.519099  12.485376  10.041070   8.653526  12.600942
                   11         12         13         14         15
    11  H    0.000000
    12  N    4.620298   0.000000
    13  O    4.773632   1.229080   0.000000
    14  O    5.673028   1.229080   2.182000   0.000000
    15  C    9.455961   6.993017   8.176300   6.071337   0.000000
    16  C    8.234656   6.267409   7.479867   5.529656   1.529047
    17  C    7.478637   6.184476   7.410772   5.648122   2.546287
    18  H   10.096776   7.931487   9.130413   7.053919   1.098610
    19  H    9.235149   6.519094   7.676745   5.552256   1.098816
    20  H    8.688038   7.014218   8.208707   6.333983   2.152561
    21  H    7.670709   5.367022   6.555111   4.604684   2.152561
    22  H    7.169506   5.631294   6.843495   5.080645   2.803300
    23  H    8.254611   7.226457   8.448995   6.696019   2.803300
    24  H    6.684279   5.955668   7.156560   5.611991   3.500761
    25  C   10.390705   7.518373   8.630569   6.488584   1.527655
    26  C   11.666233   8.525046   9.587429   7.410422   2.554280
    27  C   12.686330   9.309753  10.291263   8.157978   3.916783
    28  H   10.752387   8.151656   9.269631   7.187153   2.155507
    29  H    9.947739   6.785293   7.841851   5.720623   2.155751
    30  H   12.188119   9.307597  10.410436   8.232120   2.776381
    31  H   11.485121   8.138614   9.163176   6.989390   2.776381
    32  H   12.354922   8.752559   9.661979   7.584651   4.228003
    33  H   13.014640   9.854821  10.858449   8.749322   4.228002
    34  H   13.601359  10.112016  11.064216   8.931016   4.730016
                   16         17         18         19         20
    16  C    0.000000
    17  C    1.528984   0.000000
    18  H    2.155655   2.768905   0.000000
    19  H    2.155330   2.768928   1.761001   0.000000
    20  H    1.097550   2.161692   2.501266   3.058264   0.000000
    21  H    1.097551   2.161693   3.058420   2.500372   1.760000
    22  H    2.171275   1.094807   3.122903   2.576230   3.074390
    23  H    2.171275   1.094807   2.576301   3.123412   2.517276
    24  H    2.182504   1.094468   3.775302   3.775138   2.508384
    25  C    2.554280   3.916783   2.155750   2.155507   2.776382
    26  C    3.923128   5.100546   2.781358   2.781503   4.203070
    27  C    5.100546   6.427736   4.204569   4.204483   5.211519
    28  H    2.781504   4.204483   2.504588   3.061614   2.551218
    29  H    2.781358   4.204569   3.061809   2.504587   3.099347
    30  H    4.203070   5.211519   2.551148   3.099972   4.387744
    31  H    4.203070   5.211519   3.099347   2.551217   4.727567
    32  H    5.248682   6.635279   4.755801   4.415730   5.422721
    33  H    5.248681   6.635278   4.416156   4.755776   5.127445
    34  H    6.032715   7.274719   4.888348   4.888413   6.192291
                   21         22         23         24         25
    21  H    0.000000
    22  H    2.517275   0.000000
    23  H    3.074391   1.770000   0.000000
    24  H    2.508384   1.771810   1.771810   0.000000
    25  C    2.776382   4.228002   4.228003   4.730016   0.000000
    26  C    4.203070   5.248682   5.248682   6.032716   1.529047
    27  C    5.211519   6.635279   6.635279   7.274720   2.546287
    28  H    3.099973   4.755777   4.415731   4.888414   1.098815
    29  H    2.551147   4.416157   4.755801   4.888348   1.098611
    30  H    4.727568   5.422721   5.127446   6.192292   2.152560
    31  H    4.387743   5.127445   5.422721   6.192291   2.152560
    32  H    5.127446   6.782504   7.009655   7.408767   2.803300
    33  H    5.422720   7.009654   6.782504   7.408767   2.803299
    34  H    6.192291   7.408767   7.408767   8.180649   3.500760
                   26         27         28         29         30
    26  C    0.000000
    27  C    1.528985   0.000000
    28  H    2.155330   2.768927   0.000000
    29  H    2.155656   2.768906   1.761000   0.000000
    30  H    1.097549   2.161692   2.500372   3.058420   0.000000
    31  H    1.097550   2.161693   3.058264   2.501266   1.760000
    32  H    2.171275   1.094807   3.123411   2.576301   3.074390
    33  H    2.171274   1.094805   2.576229   3.122903   2.517275
    34  H    2.182504   1.094468   3.775138   3.775302   2.508383
                   31         32         33         34
    31  H    0.000000
    32  H    2.517276   0.000000
    33  H    3.074390   1.770000   0.000000
    34  H    2.508384   1.771810   1.771810   0.000000
 Stoichiometry    C12H19NO2
 Framework group  C1[X(C12H19NO2)]
 Deg. of freedom    96
 Full point group                 C1      NOp   1
 Largest Abelian subgroup         C1      NOp   1
 Largest concise Abelian subgroup C1      NOp   1
                         Standard orientation:                         
 ---------------------------------------------------------------------
 Center     Atomic      Atomic             Coordinates (Angstroms)
 Number     Number       Type             X           Y           Z
 ---------------------------------------------------------------------
      1          6           0       -3.756046   -2.113619   -0.211034
      2          6           0       -2.421143   -1.729457   -0.046794
      3          6           0       -2.079903   -0.378425    0.066425
      4          6           0       -3.103589    0.566180    0.010935
      5          6           0       -4.442774    0.214952   -0.151889
      6          6           0       -4.760830   -1.141902   -0.262965
      7          1           0       -4.012124   -3.165393   -0.298152
      8          1           0       -1.638725   -2.481927   -0.006116
      9          1           0       -1.054574   -0.053206    0.194290
     10          1           0       -5.200707    0.987994   -0.188785
     11          1           0       -5.798383   -1.437332   -0.390441
     12          7           0       -2.754606    1.999538    0.129660
     13          8           0       -3.675065    2.812367    0.077690
     14          8           0       -1.567222    2.283034    0.272440
     15          6           0        3.606499   -0.890387    0.424575
     16          6           0        2.436133   -1.477838   -0.364812
     17          6           0        1.565644   -2.412174    0.476054
     18          1           0        4.221844   -1.710022    0.820168
     19          1           0        3.215760   -0.344827    1.294680
     20          1           0        2.828894   -2.020959   -1.233935
     21          1           0        1.823609   -0.656706   -0.758732
     22          1           0        1.146331   -1.878704    1.335233
     23          1           0        2.157327   -3.250709    0.857331
     24          1           0        0.735046   -2.820824   -0.107876
     25          6           0        4.485932    0.045728   -0.402476
     26          6           0        5.656297    0.633179    0.386911
     27          6           0        6.526787    1.567515   -0.453956
     28          1           0        4.876670   -0.499831   -1.272582
     29          1           0        3.870586    0.865363   -0.798069
     30          1           0        6.268821   -0.187952    0.780832
     31          1           0        5.263536    1.176300    1.256034
     32          1           0        5.935102    2.406050   -0.835232
     33          1           0        6.946098    1.034045   -1.313134
     34          1           0        7.357384    1.976165    0.129976
 ---------------------------------------------------------------------
 Rotational constants (GHZ):           0.8304007           0.1647697           0.1397846
 Leave Link  202 at Thu May  6 07:49:08 2021, MaxMem=   524288000 cpu:               0.0 elap:               0.1
 (Enter /opt/gaussian/g16_legacy/l301.exe)
 Standard basis: 6-31G(d) (6D, 7F)
 Ernie: Thresh=  0.10000D-02 Tol=  0.10000D-05 Strict=F.
 There are   263 symmetry adapted cartesian basis functions of A   symmetry.
 There are   263 symmetry adapted basis functions of A   symmetry.
   263 basis functions,   496 primitive gaussians,   263 cartesian basis functions
    57 alpha electrons       57 beta electrons
       nuclear repulsion energy       891.5434260003 Hartrees.
 IExCor=    0 DFT=F Ex=HF Corr=None ExCW=0 ScaHFX=  1.000000
 ScaDFX=  1.000000  1.000000  1.000000  1.000000 ScalE2=  1.000000  1.000000
 IRadAn=      5 IRanWt=     -1 IRanGd=            0 ICorTp=0 IEmpDi=  4
 NAtoms=   34 NActive=   34 NUniq=   34 SFac= 1.00D+00 NAtFMM=   60 NAOKFM=F Big=F
 Integral buffers will be    131072 words long.
 Raffenetti 1 integral format.
 Two-electron integral symmetry is turned on.
 Leave Link  301 at Thu May  6 07:49:08 2021, MaxMem=   524288000 cpu:               0.1 elap:               0.1
 (Enter /opt/gaussian/g16_legacy/l302.exe)
 NPDir=0 NMtPBC=     1 NCelOv=     1 NCel=       1 NClECP=     1 NCelD=      1
         NCelK=      1 NCelE2=     1 NClLst=     1 CellRange=     0.0.
 One-electron integrals computed using PRISM.
 One-electron integral symmetry used in STVInt
 NBasis=   263 RedAO= T EigKep=  4.71D-04  NBF=   263
 NBsUse=   263 1.00D-06 EigRej= -1.00D+00 NBFU=   263
 Leave Link  302 at Thu May  6 07:49:09 2021, MaxMem=   524288000 cpu:               0.5 elap:               0.5
 (Enter /opt/gaussian/g16_legacy/l303.exe)
 DipDrv:  MaxL=1.
 Leave Link  303 at Thu May  6 07:49:09 2021, MaxMem=   524288000 cpu:               0.1 elap:               0.1
 (Enter /opt/gaussian/g16_legacy/l401.exe)
 ExpMin= 1.61D-01 ExpMax= 5.48D+03 ExpMxC= 8.25D+02 IAcc=3 IRadAn=         5 AccDes= 0.00D+00
 Harris functional with IExCor=  205 and IRadAn=       5 diagonalized for initial guess.
 HarFok:  IExCor=  205 AccDes= 0.00D+00 IRadAn=         5 IDoV= 1 UseB2=F ITyADJ=14
 ICtDFT=  3500011 ScaDFX=  1.000000  1.000000  1.000000  1.000000
 FoFCou: FMM=F IPFlag=           0 FMFlag=      100000 FMFlg1=           0
         NFxFlg=           0 DoJE=T BraDBF=F KetDBF=T FulRan=T
         wScrn=  0.000000 ICntrl=       500 IOpCl=  0 I1Cent=   200000004 NGrid=           0
         NMat0=    1 NMatS0=      1 NMatT0=    0 NMatD0=    1 NMtDS0=    0 NMtDT0=    0
 Petite list used in FoFCou.
 Harris En= -670.655533021818    
 JPrj=0 DoOrth=F DoCkMO=F.
 Leave Link  401 at Thu May  6 07:49:13 2021, MaxMem=   524288000 cpu:               7.3 elap:               3.8
 (Enter /opt/gaussian/g16_legacy/l502.exe)
 Integral symmetry usage will be decided dynamically.
 Closed shell SCF:
 Using DIIS extrapolation, IDIIS=  1040.
 NGot=   524288000 LenX=   524144919 LenY=   524075309
 Requested convergence on RMS density matrix=1.00D-08 within 128 cycles.
 Requested convergence on MAX density matrix=1.00D-06.
 Requested convergence on             energy=1.00D-06.
 No special actions if energy rises.
 Fock matrices will be formed incrementally for  20 cycles.
 Integral accuracy reduced to 1.0D-05 until final iterations.

 Cycle   1  Pass 0  IDiag  1:
 FoFJK:  IHMeth= 1 ICntrl=       0 DoSepK=F KAlg= 0 I1Cent=           0 FoldK=F
 IRaf= 700000000 NMat=       1 IRICut=       1 DoRegI=T DoRafI=F ISym2E= 0 IDoP0=0 IntGTp=1.
 FoFCou: FMM=F IPFlag=           0 FMFlag=      100000 FMFlg1=           0
         NFxFlg=           0 DoJE=F BraDBF=F KetDBF=F FulRan=T
         wScrn=  0.000000 ICntrl=         0 IOpCl=  0 I1Cent=           0 NGrid=           0
         NMat0=    1 NMatS0=      1 NMatT0=    0 NMatD0=    1 NMtDS0=    0 NMtDT0=    0
 Symmetry not used in FoFCou.
 E= -668.740443179236    
 DIIS: error= 6.21D-02 at cycle   1 NSaved=   1.
 NSaved= 1 IEnMin= 1 EnMin= -668.740443179236     IErMin= 1 ErrMin= 6.21D-02
 ErrMax= 6.21D-02  0.00D+00 EMaxC= 1.00D-01 BMatC= 1.17D+00 BMatP= 1.17D+00
 IDIUse=3 WtCom= 3.79D-01 WtEn= 6.21D-01
 Coeff-Com:  0.100D+01
 Coeff-En:   0.100D+01
 Coeff:      0.100D+01
 Gap=     0.555 Goal=   None    Shift=    0.000
 GapD=    0.555 DampG=2.000 DampE=0.500 DampFc=1.0000 IDamp=-1.
 RMSDP=4.61D-03 MaxDP=1.07D-01              OVMax= 1.51D-01

 Cycle   2  Pass 0  IDiag  1:
 RMSU=  4.48D-03    CP:  9.47D-01
 E= -669.358340044651     Delta-E=       -0.617896865415 Rises=F Damp=F
 DIIS: error= 3.85D-02 at cycle   2 NSaved=   2.
 NSaved= 2 IEnMin= 2 EnMin= -669.358340044651     IErMin= 2 ErrMin= 3.85D-02
 ErrMax= 3.85D-02  0.00D+00 EMaxC= 1.00D-01 BMatC= 2.18D-01 BMatP= 1.17D+00
 IDIUse=3 WtCom= 6.15D-01 WtEn= 3.85D-01
 Coeff-Com:  0.247D+00 0.753D+00
 Coeff-En:   0.000D+00 0.100D+01
 Coeff:      0.152D+00 0.848D+00
 Gap=     0.579 Goal=   None    Shift=    0.000
 RMSDP=1.86D-03 MaxDP=8.92D-02 DE=-6.18D-01 OVMax= 1.26D-01

 Cycle   3  Pass 0  IDiag  1:
 RMSU=  1.47D-03    CP:  9.57D-01  7.49D-01
 E= -669.502312308307     Delta-E=       -0.143972263656 Rises=F Damp=F
 DIIS: error= 2.13D-02 at cycle   3 NSaved=   3.
 NSaved= 3 IEnMin= 3 EnMin= -669.502312308307     IErMin= 3 ErrMin= 2.13D-02
 ErrMax= 2.13D-02  0.00D+00 EMaxC= 1.00D-01 BMatC= 4.31D-02 BMatP= 2.18D-01
 IDIUse=3 WtCom= 7.87D-01 WtEn= 2.13D-01
 Coeff-Com: -0.976D-02 0.290D+00 0.720D+00
 Coeff-En:   0.000D+00 0.000D+00 0.100D+01
 Coeff:     -0.768D-02 0.228D+00 0.780D+00
 Gap=     0.426 Goal=   None    Shift=    0.000
 RMSDP=6.65D-04 MaxDP=3.66D-02 DE=-1.44D-01 OVMax= 5.67D-02

 Cycle   4  Pass 0  IDiag  1:
 RMSU=  4.13D-04    CP:  9.55D-01  8.38D-01  7.73D-01
 E= -669.532196426339     Delta-E=       -0.029884118033 Rises=F Damp=F
 DIIS: error= 7.35D-03 at cycle   4 NSaved=   4.
 NSaved= 4 IEnMin= 4 EnMin= -669.532196426339     IErMin= 4 ErrMin= 7.35D-03
 ErrMax= 7.35D-03  0.00D+00 EMaxC= 1.00D-01 BMatC= 4.20D-03 BMatP= 4.31D-02
 IDIUse=3 WtCom= 9.26D-01 WtEn= 7.35D-02
 Coeff-Com: -0.134D-01 0.472D-01 0.310D+00 0.656D+00
 Coeff-En:   0.000D+00 0.000D+00 0.000D+00 0.100D+01
 Coeff:     -0.124D-01 0.438D-01 0.288D+00 0.681D+00
 Gap=     0.412 Goal=   None    Shift=    0.000
 RMSDP=1.97D-04 MaxDP=1.17D-02 DE=-2.99D-02 OVMax= 1.76D-02

 Cycle   5  Pass 0  IDiag  1:
 RMSU=  9.99D-05    CP:  9.54D-01  8.35D-01  8.59D-01  7.29D-01
 E= -669.535428616899     Delta-E=       -0.003232190559 Rises=F Damp=F
 DIIS: error= 6.13D-04 at cycle   5 NSaved=   5.
 NSaved= 5 IEnMin= 5 EnMin= -669.535428616899     IErMin= 5 ErrMin= 6.13D-04
 ErrMax= 6.13D-04  0.00D+00 EMaxC= 1.00D-01 BMatC= 8.18D-05 BMatP= 4.20D-03
 IDIUse=3 WtCom= 9.94D-01 WtEn= 6.13D-03
 Coeff-Com:  0.212D-02-0.217D-01-0.809D-01-0.947D-02 0.111D+01
 Coeff-En:   0.000D+00 0.000D+00 0.000D+00 0.000D+00 0.100D+01
 Coeff:      0.211D-02-0.216D-01-0.804D-01-0.941D-02 0.111D+01
 Gap=     0.414 Goal=   None    Shift=    0.000
 RMSDP=5.44D-05 MaxDP=2.17D-03 DE=-3.23D-03 OVMax= 4.94D-03

 Cycle   6  Pass 0  IDiag  1:
 RMSU=  2.46D-05    CP:  9.54D-01  8.38D-01  8.70D-01  8.20D-01  1.23D+00
 E= -669.535553681116     Delta-E=       -0.000125064217 Rises=F Damp=F
 DIIS: error= 3.00D-04 at cycle   6 NSaved=   6.
 NSaved= 6 IEnMin= 6 EnMin= -669.535553681116     IErMin= 6 ErrMin= 3.00D-04
 ErrMax= 3.00D-04  0.00D+00 EMaxC= 1.00D-01 BMatC= 5.77D-06 BMatP= 8.18D-05
 IDIUse=3 WtCom= 9.97D-01 WtEn= 3.00D-03
 Coeff-Com:  0.123D-02-0.702D-02-0.345D-01-0.456D-01 0.136D+00 0.950D+00
 Coeff-En:   0.000D+00 0.000D+00 0.000D+00 0.000D+00 0.000D+00 0.100D+01
 Coeff:      0.123D-02-0.700D-02-0.344D-01-0.455D-01 0.136D+00 0.950D+00
 Gap=     0.414 Goal=   None    Shift=    0.000
 RMSDP=1.72D-05 MaxDP=6.42D-04 DE=-1.25D-04 OVMax= 1.68D-03

 Cycle   7  Pass 0  IDiag  1:
 RMSU=  8.76D-06    CP:  9.54D-01  8.38D-01  8.73D-01  8.31D-01  1.36D+00
                    CP:  1.18D+00
 E= -669.535568349343     Delta-E=       -0.000014668227 Rises=F Damp=F
 DIIS: error= 1.56D-04 at cycle   7 NSaved=   7.
 NSaved= 7 IEnMin= 7 EnMin= -669.535568349343     IErMin= 7 ErrMin= 1.56D-04
 ErrMax= 1.56D-04  0.00D+00 EMaxC= 1.00D-01 BMatC= 1.15D-06 BMatP= 5.77D-06
 IDIUse=3 WtCom= 9.98D-01 WtEn= 1.56D-03
 Coeff-Com: -0.255D-03 0.268D-02 0.998D-02 0.205D-02-0.153D+00 0.225D-01
 Coeff-Com:  0.112D+01
 Coeff-En:   0.000D+00 0.000D+00 0.000D+00 0.000D+00 0.000D+00 0.000D+00
 Coeff-En:   0.100D+01
 Coeff:     -0.255D-03 0.268D-02 0.997D-02 0.205D-02-0.152D+00 0.225D-01
 Coeff:      0.112D+01
 Gap=     0.414 Goal=   None    Shift=    0.000
 RMSDP=8.89D-06 MaxDP=5.53D-04 DE=-1.47D-05 OVMax= 1.34D-03

 Initial convergence to 1.0D-05 achieved.  Increase integral accuracy.
 Cycle   8  Pass 1  IDiag  1:
 E= -669.535572697900     Delta-E=       -0.000004348557 Rises=F Damp=F
 DIIS: error= 9.66D-05 at cycle   1 NSaved=   1.
 NSaved= 1 IEnMin= 1 EnMin= -669.535572697900     IErMin= 1 ErrMin= 9.66D-05
 ErrMax= 9.66D-05  0.00D+00 EMaxC= 1.00D-01 BMatC= 3.89D-07 BMatP= 3.89D-07
 IDIUse=1 WtCom= 1.00D+00 WtEn= 0.00D+00
 Coeff-Com:  0.100D+01
 Coeff:      0.100D+01
 Gap=     0.414 Goal=   None    Shift=    0.000
 RMSDP=8.89D-06 MaxDP=5.53D-04 DE=-4.35D-06 OVMax= 5.30D-04

 Cycle   9  Pass 1  IDiag  1:
 RMSU=  1.38D-05    CP:  1.00D+00
 E= -669.535573728300     Delta-E=       -0.000001030400 Rises=F Damp=F
 DIIS: error= 5.67D-05 at cycle   2 NSaved=   2.
 NSaved= 2 IEnMin= 2 EnMin= -669.535573728300     IErMin= 2 ErrMin= 5.67D-05
 ErrMax= 5.67D-05  0.00D+00 EMaxC= 1.00D-01 BMatC= 1.13D-07 BMatP= 3.89D-07
 IDIUse=1 WtCom= 1.00D+00 WtEn= 0.00D+00
 Coeff-Com: -0.156D-01 0.102D+01
 Coeff:     -0.156D-01 0.102D+01
 Gap=     0.414 Goal=   None    Shift=    0.000
 RMSDP=2.38D-06 MaxDP=1.23D-04 DE=-1.03D-06 OVMax= 3.89D-04

 Cycle  10  Pass 1  IDiag  1:
 RMSU=  2.12D-06    CP:  1.00D+00  1.08D+00
 E= -669.535574137108     Delta-E=       -0.000000408808 Rises=F Damp=F
 DIIS: error= 4.50D-05 at cycle   3 NSaved=   3.
 NSaved= 3 IEnMin= 3 EnMin= -669.535574137108     IErMin= 3 ErrMin= 4.50D-05
 ErrMax= 4.50D-05  0.00D+00 EMaxC= 1.00D-01 BMatC= 5.14D-08 BMatP= 1.13D-07
 IDIUse=1 WtCom= 1.00D+00 WtEn= 0.00D+00
 Coeff-Com: -0.313D+00 0.113D+00 0.120D+01
 Coeff:     -0.313D+00 0.113D+00 0.120D+01
 Gap=     0.414 Goal=   None    Shift=    0.000
 RMSDP=2.31D-06 MaxDP=9.66D-05 DE=-4.09D-07 OVMax= 3.53D-04

 Cycle  11  Pass 1  IDiag  1:
 RMSU=  1.38D-06    CP:  1.00D+00  1.14D+00  1.79D+00
 E= -669.535574393382     Delta-E=       -0.000000256274 Rises=F Damp=F
 DIIS: error= 1.59D-05 at cycle   4 NSaved=   4.
 NSaved= 4 IEnMin= 4 EnMin= -669.535574393382     IErMin= 4 ErrMin= 1.59D-05
 ErrMax= 1.59D-05  0.00D+00 EMaxC= 1.00D-01 BMatC= 8.92D-09 BMatP= 5.14D-08
 IDIUse=1 WtCom= 1.00D+00 WtEn= 0.00D+00
 Coeff-Com:  0.161D-01-0.357D+00-0.671D-01 0.141D+01
 Coeff:      0.161D-01-0.357D+00-0.671D-01 0.141D+01
 Gap=     0.414 Goal=   None    Shift=    0.000
 RMSDP=1.65D-06 MaxDP=7.40D-05 DE=-2.56D-07 OVMax= 2.59D-04

 Cycle  12  Pass 1  IDiag  1:
 RMSU=  2.23D-07    CP:  1.00D+00  1.15D+00  2.50D+00  1.46D+00
 E= -669.535574451847     Delta-E=       -0.000000058466 Rises=F Damp=F
 DIIS: error= 1.71D-06 at cycle   5 NSaved=   5.
 NSaved= 5 IEnMin= 5 EnMin= -669.535574451847     IErMin= 5 ErrMin= 1.71D-06
 ErrMax= 1.71D-06  0.00D+00 EMaxC= 1.00D-01 BMatC= 6.40D-10 BMatP= 8.92D-09
 IDIUse=1 WtCom= 1.00D+00 WtEn= 0.00D+00
 Coeff-Com:  0.191D-01-0.145D+00-0.677D-01 0.553D+00 0.641D+00
 Coeff:      0.191D-01-0.145D+00-0.677D-01 0.553D+00 0.641D+00
 Gap=     0.414 Goal=   None    Shift=    0.000
 RMSDP=1.06D-07 MaxDP=4.46D-06 DE=-5.85D-08 OVMax= 1.16D-05

 Cycle  13  Pass 1  IDiag  1:
 RMSU=  7.64D-08    CP:  1.00D+00  1.15D+00  2.52D+00  1.50D+00  9.85D-01
 E= -669.535574452526     Delta-E=       -0.000000000679 Rises=F Damp=F
 DIIS: error= 1.21D-06 at cycle   6 NSaved=   6.
 NSaved= 6 IEnMin= 6 EnMin= -669.535574452526     IErMin= 6 ErrMin= 1.21D-06
 ErrMax= 1.21D-06  0.00D+00 EMaxC= 1.00D-01 BMatC= 4.14D-11 BMatP= 6.40D-10
 IDIUse=1 WtCom= 1.00D+00 WtEn= 0.00D+00
 Coeff-Com: -0.298D-02 0.572D-01 0.121D-01-0.229D+00-0.730D-01 0.124D+01
 Coeff:     -0.298D-02 0.572D-01 0.121D-01-0.229D+00-0.730D-01 0.124D+01
 Gap=     0.414 Goal=   None    Shift=    0.000
 RMSDP=5.79D-08 MaxDP=2.85D-06 DE=-6.79D-10 OVMax= 6.60D-06

 Cycle  14  Pass 1  IDiag  1:
 RMSU=  2.82D-08    CP:  1.00D+00  1.15D+00  2.53D+00  1.51D+00  1.13D+00
                    CP:  1.29D+00
 E= -669.535574452664     Delta-E=       -0.000000000137 Rises=F Damp=F
 DIIS: error= 2.21D-07 at cycle   7 NSaved=   7.
 NSaved= 7 IEnMin= 7 EnMin= -669.535574452664     IErMin= 7 ErrMin= 2.21D-07
 ErrMax= 2.21D-07  0.00D+00 EMaxC= 1.00D-01 BMatC= 8.14D-12 BMatP= 4.14D-11
 IDIUse=1 WtCom= 1.00D+00 WtEn= 0.00D+00
 Coeff-Com: -0.279D-02 0.274D-01 0.109D-01-0.109D+00-0.116D+00 0.292D+00
 Coeff-Com:  0.898D+00
 Coeff:     -0.279D-02 0.274D-01 0.109D-01-0.109D+00-0.116D+00 0.292D+00
 Coeff:      0.898D+00
 Gap=     0.414 Goal=   None    Shift=    0.000
 RMSDP=1.71D-08 MaxDP=8.06D-07 DE=-1.37D-10 OVMax= 1.59D-06

 Cycle  15  Pass 1  IDiag  1:
 RMSU=  9.95D-09    CP:  1.00D+00  1.15D+00  2.53D+00  1.51D+00  1.15D+00
                    CP:  1.42D+00  1.16D+00
 E= -669.535574452680     Delta-E=       -0.000000000017 Rises=F Damp=F
 DIIS: error= 9.65D-08 at cycle   8 NSaved=   8.
 NSaved= 8 IEnMin= 8 EnMin= -669.535574452680     IErMin= 8 ErrMin= 9.65D-08
 ErrMax= 9.65D-08  0.00D+00 EMaxC= 1.00D-01 BMatC= 1.04D-12 BMatP= 8.14D-12
 IDIUse=1 WtCom= 1.00D+00 WtEn= 0.00D+00
 Coeff-Com:  0.178D-03-0.573D-02-0.170D-03 0.222D-01-0.126D-01-0.118D+00
 Coeff-Com:  0.560D-01 0.106D+01
 Coeff:      0.178D-03-0.573D-02-0.170D-03 0.222D-01-0.126D-01-0.118D+00
 Coeff:      0.560D-01 0.106D+01
 Gap=     0.414 Goal=   None    Shift=    0.000
 RMSDP=6.84D-09 MaxDP=3.95D-07 DE=-1.68D-11 OVMax= 6.56D-07

 SCF Done:  E(RHF) =  -669.535574453     A.U. after   15 cycles
            NFock= 15  Conv=0.68D-08     -V/T= 2.0024
 KE= 6.679613568461D+02 PE=-3.346084986418D+03 EE= 1.117044629119D+03
 Leave Link  502 at Thu May  6 07:49:40 2021, MaxMem=   524288000 cpu:              53.4 elap:              27.0
 (Enter /opt/gaussian/g16_legacy/l801.exe)
 ExpMin= 1.61D-01 ExpMax= 5.48D+03 ExpMxC= 8.25D+02 IAcc=3 IRadAn=         5 AccDes= 0.00D+00
 HarFok:  IExCor=  205 AccDes= 0.00D+00 IRadAn=         5 IDoV=-2 UseB2=F ITyADJ=14
 ICtDFT= 12500011 ScaDFX=  1.000000  1.000000  1.000000  1.000000
 Largest valence mixing into a core orbital is  1.96D-04
 Largest core mixing into a valence orbital is  4.00D-05
 Range of M.O.s used for correlation:    16   263
 NBasis=   263 NAE=    57 NBE=    57 NFC=    15 NFV=     0
 NROrb=    248 NOA=    42 NOB=    42 NVA=   206 NVB=   206
 Leave Link  801 at Thu May  6 07:49:40 2021, MaxMem=   524288000 cpu:               1.1 elap:               0.6
 (Enter /opt/gaussian/g16_legacy/l906.exe)
 FulOut=F Deriv=F AODrv=F NAtomX=    34
   MMem=         113  MDisk=          42 MDiskD=          42
  W3Min=     2275476 MinDsk=     2420380 NBas6D=         263
 NBas2D=       35121    NTT=       34716    LW2=     2000000
    MDV=   523953029 MDiskM=       27564 NBas2p=       22762
 Fully direct method using O(OVN) memory.
 IMap=   1   2   3   4   5   6   7   8   9  10  11  12  13  14  15  16  17  18  19  20
 IMap=  21  22  23  24  25  26  27  28  29  30  31  32  33  34  35  36  37  38  39  40
 IMap=  41  42
 JobTyp=1 Pass  1:  I=   1 to  42 NPSUse=  2 ParTrn=T ParDer=T DoDerP=F.
 Spin components of T(2) and E(2):
     alpha-alpha T2 =       0.9490382740D-01 E2=     -0.2718922354D+00
     alpha-beta  T2 =       0.5259348997D+00 E2=     -0.1547572892D+01
     beta-beta   T2 =       0.9490382740D-01 E2=     -0.2718922354D+00
 The integrals were generated   1 times.
 ANorm=    0.1309863563D+01
 E2 =    -0.2091357363D+01 EUMP2 =    -0.67162693181581D+03
 Leave Link  906 at Thu May  6 07:50:34 2021, MaxMem=   524288000 cpu:             106.5 elap:              53.6
 (Enter /opt/gaussian/g16_legacy/l601.exe)
 Copying SCF densities to generalized density rwf, IOpCl= 0 IROHF=0.

 **********************************************************************

            Population analysis using the SCF density.

 **********************************************************************

 Orbital symmetries:
       Occupied  (A) (A) (A) (A) (A) (A) (A) (A) (A) (A) (A) (A)
                 (A) (A) (A) (A) (A) (A) (A) (A) (A) (A) (A) (A)
                 (A) (A) (A) (A) (A) (A) (A) (A) (A) (A) (A) (A)
                 (A) (A) (A) (A) (A) (A) (A) (A) (A) (A) (A) (A)
                 (A) (A) (A) (A) (A) (A) (A) (A) (A)
       Virtual   (A) (A) (A) (A) (A) (A) (A) (A) (A) (A) (A) (A)
                 (A) (A) (A) (A) (A) (A) (A) (A) (A) (A) (A) (A)
                 (A) (A) (A) (A) (A) (A) (A) (A) (A) (A) (A) (A)
                 (A) (A) (A) (A) (A) (A) (A) (A) (A) (A) (A) (A)
                 (A) (A) (A) (A) (A) (A) (A) (A) (A) (A) (A) (A)
                 (A) (A) (A) (A) (A) (A) (A) (A) (A) (A) (A) (A)
                 (A) (A) (A) (A) (A) (A) (A) (A) (A) (A) (A) (A)
                 (A) (A) (A) (A) (A) (A) (A) (A) (A) (A) (A) (A)
                 (A) (A) (A) (A) (A) (A) (A) (A) (A) (A) (A) (A)
                 (A) (A) (A) (A) (A) (A) (A) (A) (A) (A) (A) (A)
                 (A) (A) (A) (A) (A) (A) (A) (A) (A) (A) (A) (A)
                 (A) (A) (A) (A) (A) (A) (A) (A) (A) (A) (A) (A)
                 (A) (A) (A) (A) (A) (A) (A) (A) (A) (A) (A) (A)
                 (A) (A) (A) (A) (A) (A) (A) (A) (A) (A) (A) (A)
                 (A) (A) (A) (A) (A) (A) (A) (A) (A) (A) (A) (A)
                 (A) (A) (A) (A) (A) (A) (A) (A) (A) (A) (A) (A)
                 (A) (A) (A) (A) (A) (A) (A) (A) (A) (A) (A) (A)
                 (A) (A)
 The electronic state is 1-A.
 Alpha  occ. eigenvalues --  -20.60750 -20.60743 -15.85801 -11.31138 -11.27706
 Alpha  occ. eigenvalues --  -11.27685 -11.27435 -11.26721 -11.26660 -11.22155
 Alpha  occ. eigenvalues --  -11.21990 -11.21663 -11.21607 -11.21456 -11.21011
 Alpha  occ. eigenvalues --   -1.59824  -1.39379  -1.19305  -1.08708  -1.08682
 Alpha  occ. eigenvalues --   -1.04703  -1.03853  -0.96325  -0.95546  -0.87351
 Alpha  occ. eigenvalues --   -0.86102  -0.82378  -0.79926  -0.78432  -0.77431
 Alpha  occ. eigenvalues --   -0.72020  -0.71146  -0.70420  -0.65311  -0.64955
 Alpha  occ. eigenvalues --   -0.64727  -0.62139  -0.61205  -0.59723  -0.57902
 Alpha  occ. eigenvalues --   -0.55603  -0.55194  -0.53214  -0.53038  -0.52812
 Alpha  occ. eigenvalues --   -0.52555  -0.50246  -0.48778  -0.48774  -0.48230
 Alpha  occ. eigenvalues --   -0.46933  -0.45990  -0.45868  -0.44791  -0.44082
 Alpha  occ. eigenvalues --   -0.37289  -0.36302
 Alpha virt. eigenvalues --    0.05094   0.11341   0.16581   0.19327   0.22816
 Alpha virt. eigenvalues --    0.23840   0.25744   0.26211   0.27223   0.27783
 Alpha virt. eigenvalues --    0.29060   0.29915   0.31286   0.31715   0.32342
 Alpha virt. eigenvalues --    0.33641   0.33828   0.34363   0.34452   0.34993
 Alpha virt. eigenvalues --    0.36076   0.36251   0.38144   0.38970   0.39512
 Alpha virt. eigenvalues --    0.40695   0.43360   0.44940   0.45185   0.45763
 Alpha virt. eigenvalues --    0.47537   0.48620   0.49429   0.51149   0.56662
 Alpha virt. eigenvalues --    0.67291   0.68780   0.68901   0.69710   0.70291
 Alpha virt. eigenvalues --    0.71487   0.71950   0.75333   0.76183   0.77490
 Alpha virt. eigenvalues --    0.78810   0.78992   0.79083   0.79917   0.80031
 Alpha virt. eigenvalues --    0.80691   0.81167   0.82305   0.83914   0.85900
 Alpha virt. eigenvalues --    0.87201   0.87752   0.88043   0.89169   0.93726
 Alpha virt. eigenvalues --    0.95598   0.95993   0.96717   0.98352   1.00563
 Alpha virt. eigenvalues --    1.01420   1.01977   1.04729   1.05370   1.06862
 Alpha virt. eigenvalues --    1.07331   1.08576   1.09339   1.10366   1.10979
 Alpha virt. eigenvalues --    1.11721   1.14851   1.15702   1.16267   1.17044
 Alpha virt. eigenvalues --    1.17658   1.18969   1.19567   1.19799   1.20511
 Alpha virt. eigenvalues --    1.20713   1.20976   1.21614   1.22041   1.22599
 Alpha virt. eigenvalues --    1.23313   1.23620   1.25160   1.25804   1.26762
 Alpha virt. eigenvalues --    1.27823   1.28336   1.31140   1.31405   1.34383
 Alpha virt. eigenvalues --    1.35757   1.40416   1.42485   1.46564   1.47129
 Alpha virt. eigenvalues --    1.52581   1.53528   1.55245   1.60563   1.65432
 Alpha virt. eigenvalues --    1.65507   1.66654   1.67155   1.67196   1.68268
 Alpha virt. eigenvalues --    1.71051   1.72540   1.72629   1.73349   1.73571
 Alpha virt. eigenvalues --    1.75581   1.79643   1.81096   1.92459   1.97048
 Alpha virt. eigenvalues --    1.99354   1.99886   2.04486   2.04820   2.05160
 Alpha virt. eigenvalues --    2.10077   2.12449   2.12935   2.13550   2.14899
 Alpha virt. eigenvalues --    2.17857   2.21647   2.21733   2.22241   2.24780
 Alpha virt. eigenvalues --    2.25351   2.25719   2.27276   2.27440   2.32544
 Alpha virt. eigenvalues --    2.32894   2.33889   2.35693   2.36425   2.37706
 Alpha virt. eigenvalues --    2.39492   2.42957   2.43077   2.43396   2.44951
 Alpha virt. eigenvalues --    2.45745   2.46908   2.56458   2.56818   2.58141
 Alpha virt. eigenvalues --    2.58643   2.59593   2.59836   2.66480   2.67480
 Alpha virt. eigenvalues --    2.67792   2.70639   2.76812   2.77339   2.79617
 Alpha virt. eigenvalues --    2.81828   2.83524   2.91117   2.92000   2.92086
 Alpha virt. eigenvalues --    2.92731   2.94903   2.98284   3.00038   3.04748
 Alpha virt. eigenvalues --    3.05052   3.07496   3.10807   3.13488   3.18404
 Alpha virt. eigenvalues --    3.23723   3.24596   3.27769   3.43170   3.52981
 Alpha virt. eigenvalues --    3.77033   4.13071   4.28639   4.37898   4.48245
 Alpha virt. eigenvalues --    4.51016   4.53032   4.55345   4.62320   4.71731
 Alpha virt. eigenvalues --    4.72184   4.76865   4.79671   4.87774   4.99550
 Alpha virt. eigenvalues --    5.09006
          Condensed to atoms (all electrons):
               1          2          3          4          5          6
     1  C    4.878950   0.540460  -0.045025  -0.028974  -0.045660   0.542091
     2  C    0.540460   4.941134   0.523634  -0.039492  -0.030166  -0.043589
     3  C   -0.045025   0.523634   4.925501   0.545944  -0.052316  -0.030409
     4  C   -0.028974  -0.039492   0.545944   4.823506   0.548196  -0.039969
     5  C   -0.045660  -0.030166  -0.052316   0.548196   4.918815   0.522776
     6  C    0.542091  -0.043589  -0.030409  -0.039969   0.522776   4.932579
     7  H    0.381215  -0.027964   0.002146   0.000224   0.002162  -0.027875
     8  H   -0.027609   0.380049  -0.026570   0.001499   0.000200   0.002264
     9  H    0.001920  -0.023334   0.367468  -0.020288   0.002488  -0.000058
    10  H    0.001946  -0.000073   0.002577  -0.019767   0.368676  -0.024144
    11  H   -0.027748   0.002336   0.000191   0.001560  -0.027410   0.382679
    12  N    0.000015   0.001473  -0.044402   0.244026  -0.044603   0.001507
    13  O   -0.000004  -0.000029   0.003701  -0.087847   0.004046   0.000774
    14  O   -0.000004   0.000772   0.003688  -0.087645   0.003716  -0.000028
    15  C   -0.000000  -0.000001   0.000002  -0.000000  -0.000000   0.000000
    16  C   -0.000000   0.000045  -0.000139   0.000000   0.000000  -0.000000
    17  C    0.000009  -0.000907   0.000117   0.000008  -0.000000  -0.000000
    18  H    0.000000  -0.000000  -0.000000   0.000000  -0.000000   0.000000
    19  H    0.000000   0.000000  -0.000001  -0.000000   0.000000  -0.000000
    20  H    0.000000  -0.000000   0.000002  -0.000000  -0.000000   0.000000
    21  H    0.000000  -0.000000   0.000017   0.000003   0.000000  -0.000000
    22  H    0.000003   0.000036   0.000102   0.000005  -0.000000  -0.000000
    23  H   -0.000000   0.000012  -0.000000  -0.000000   0.000000   0.000000
    24  H    0.000009  -0.000675   0.000040   0.000007  -0.000000   0.000000
    25  C   -0.000000   0.000000   0.000000  -0.000000  -0.000000   0.000000
    26  C   -0.000000  -0.000000   0.000000   0.000000  -0.000000   0.000000
    27  C    0.000000   0.000000  -0.000000   0.000000   0.000000  -0.000000
    28  H    0.000000   0.000000  -0.000000  -0.000000   0.000000  -0.000000
    29  H   -0.000000   0.000000  -0.000000   0.000000  -0.000000   0.000000
    30  H    0.000000  -0.000000   0.000000  -0.000000  -0.000000   0.000000
    31  H    0.000000   0.000000  -0.000000   0.000000   0.000000  -0.000000
    32  H    0.000000   0.000000   0.000000  -0.000000   0.000000  -0.000000
    33  H   -0.000000   0.000000  -0.000000   0.000000   0.000000  -0.000000
    34  H   -0.000000  -0.000000   0.000000  -0.000000  -0.000000   0.000000
               7          8          9         10         11         12
     1  C    0.381215  -0.027609   0.001920   0.001946  -0.027748   0.000015
     2  C   -0.027964   0.380049  -0.023334  -0.000073   0.002336   0.001473
     3  C    0.002146  -0.026570   0.367468   0.002577   0.000191  -0.044402
     4  C    0.000224   0.001499  -0.020288  -0.019767   0.001560   0.244026
     5  C    0.002162   0.000200   0.002488   0.368676  -0.027410  -0.044603
     6  C   -0.027875   0.002264  -0.000058  -0.024144   0.382679   0.001507
     7  H    0.446637  -0.000974  -0.000071  -0.000071  -0.001201   0.000002
     8  H   -0.000974   0.438519  -0.001113   0.000007  -0.000091  -0.000050
     9  H   -0.000071  -0.001113   0.389548  -0.000075   0.000007  -0.005270
    10  H   -0.000071   0.000007  -0.000075   0.393011  -0.001117  -0.005361
    11  H   -0.001201  -0.000091   0.000007  -0.001117   0.447695  -0.000049
    12  N    0.000002  -0.000050  -0.005270  -0.005361  -0.000049   5.735043
    13  O    0.000000   0.000000   0.000049   0.009032  -0.000001   0.314990
    14  O    0.000000  -0.000001   0.009256   0.000048   0.000000   0.314594
    15  C   -0.000000   0.000002  -0.000010  -0.000000   0.000000   0.000000
    16  C    0.000000  -0.000063   0.000194   0.000000  -0.000000  -0.000000
    17  C   -0.000000   0.000626   0.000044  -0.000000   0.000000  -0.000000
    18  H   -0.000000   0.000000   0.000000  -0.000000  -0.000000  -0.000000
    19  H    0.000000  -0.000000   0.000003   0.000000   0.000000   0.000000
    20  H   -0.000000   0.000000  -0.000004  -0.000000   0.000000   0.000000
    21  H   -0.000000  -0.000002   0.000609  -0.000000  -0.000000  -0.000000
    22  H   -0.000000   0.000122   0.000188  -0.000000  -0.000000  -0.000000
    23  H   -0.000000  -0.000013   0.000003   0.000000  -0.000000   0.000000
    24  H   -0.000002   0.002269  -0.000133  -0.000000   0.000000   0.000000
    25  C    0.000000  -0.000000  -0.000000  -0.000000  -0.000000   0.000000
    26  C   -0.000000   0.000000  -0.000000  -0.000000   0.000000  -0.000000
    27  C    0.000000  -0.000000   0.000000   0.000000   0.000000   0.000000
    28  H    0.000000  -0.000000   0.000000   0.000000  -0.000000   0.000000
    29  H   -0.000000   0.000000  -0.000000  -0.000000   0.000000  -0.000000
    30  H   -0.000000   0.000000  -0.000000  -0.000000   0.000000   0.000000
    31  H    0.000000  -0.000000   0.000000   0.000000  -0.000000   0.000000
    32  H   -0.000000   0.000000   0.000000   0.000000  -0.000000   0.000000
    33  H    0.000000  -0.000000   0.000000  -0.000000   0.000000  -0.000000
    34  H   -0.000000   0.000000  -0.000000  -0.000000   0.000000  -0.000000
              13         14         15         16         17         18
     1  C   -0.000004  -0.000004  -0.000000  -0.000000   0.000009   0.000000
     2  C   -0.000029   0.000772  -0.000001   0.000045  -0.000907  -0.000000
     3  C    0.003701   0.003688   0.000002  -0.000139   0.000117  -0.000000
     4  C   -0.087847  -0.087645  -0.000000   0.000000   0.000008   0.000000
     5  C    0.004046   0.003716  -0.000000   0.000000  -0.000000  -0.000000
     6  C    0.000774  -0.000028   0.000000  -0.000000  -0.000000   0.000000
     7  H    0.000000   0.000000  -0.000000   0.000000  -0.000000  -0.000000
     8  H    0.000000  -0.000001   0.000002  -0.000063   0.000626   0.000000
     9  H    0.000049   0.009256  -0.000010   0.000194   0.000044   0.000000
    10  H    0.009032   0.000048  -0.000000   0.000000  -0.000000  -0.000000
    11  H   -0.000001   0.000000   0.000000  -0.000000   0.000000  -0.000000
    12  N    0.314990   0.314594   0.000000  -0.000000  -0.000000  -0.000000
    13  O    8.303348  -0.087561   0.000000   0.000000  -0.000000  -0.000000
    14  O   -0.087561   8.304369   0.000000   0.000000  -0.000000   0.000000
    15  C    0.000000   0.000000   5.083138   0.351819  -0.057047   0.396259
    16  C    0.000000   0.000000   0.351819   5.065441   0.337595  -0.042256
    17  C   -0.000000  -0.000000  -0.057047   0.337595   5.111652  -0.002978
    18  H   -0.000000   0.000000   0.396259  -0.042256  -0.002978   0.566768
    19  H    0.000000   0.000000   0.396433  -0.041758  -0.002974  -0.031338
    20  H    0.000000   0.000000  -0.043249   0.399298  -0.039929  -0.002927
    21  H   -0.000000  -0.000002  -0.042956   0.399082  -0.040551   0.004531
    22  H   -0.000000  -0.000001  -0.003650  -0.038899   0.391471   0.000156
    23  H   -0.000000  -0.000000  -0.003642  -0.037862   0.391365   0.002582
    24  H   -0.000000   0.000000   0.004419  -0.036170   0.391422  -0.000063
    25  C   -0.000000  -0.000000   0.355452  -0.051594   0.004060  -0.041520
    26  C   -0.000000   0.000000  -0.051763   0.003979  -0.000085  -0.003175
    27  C    0.000000  -0.000000   0.004073  -0.000085   0.000001  -0.000053
    28  H    0.000000  -0.000000  -0.042056  -0.003340  -0.000052  -0.002796
    29  H   -0.000000   0.000000  -0.041372  -0.003349  -0.000049   0.004413
    30  H   -0.000000   0.000000  -0.003254  -0.000064  -0.000000   0.002400
    31  H   -0.000000  -0.000000  -0.003250  -0.000064  -0.000000   0.000238
    32  H   -0.000000  -0.000000  -0.000069  -0.000000  -0.000000  -0.000001
    33  H   -0.000000  -0.000000  -0.000069  -0.000000  -0.000000   0.000013
    34  H   -0.000000   0.000000  -0.000087   0.000001  -0.000000   0.000001
              19         20         21         22         23         24
     1  C    0.000000   0.000000   0.000000   0.000003  -0.000000   0.000009
     2  C    0.000000  -0.000000  -0.000000   0.000036   0.000012  -0.000675
     3  C   -0.000001   0.000002   0.000017   0.000102  -0.000000   0.000040
     4  C   -0.000000  -0.000000   0.000003   0.000005  -0.000000   0.000007
     5  C    0.000000  -0.000000   0.000000  -0.000000   0.000000  -0.000000
     6  C   -0.000000   0.000000  -0.000000  -0.000000   0.000000   0.000000
     7  H    0.000000  -0.000000  -0.000000  -0.000000  -0.000000  -0.000002
     8  H   -0.000000   0.000000  -0.000002   0.000122  -0.000013   0.002269
     9  H    0.000003  -0.000004   0.000609   0.000188   0.000003  -0.000133
    10  H    0.000000  -0.000000  -0.000000  -0.000000   0.000000  -0.000000
    11  H    0.000000   0.000000  -0.000000  -0.000000  -0.000000   0.000000
    12  N    0.000000   0.000000  -0.000000  -0.000000   0.000000   0.000000
    13  O    0.000000   0.000000  -0.000000  -0.000000  -0.000000  -0.000000
    14  O    0.000000   0.000000  -0.000002  -0.000001  -0.000000   0.000000
    15  C    0.396433  -0.043249  -0.042956  -0.003650  -0.003642   0.004419
    16  C   -0.041758   0.399298   0.399082  -0.038899  -0.037862  -0.036170
    17  C   -0.002974  -0.039929  -0.040551   0.391471   0.391365   0.391422
    18  H   -0.031338  -0.002927   0.004531   0.000156   0.002582  -0.000063
    19  H    0.562627   0.004505  -0.002912   0.002573   0.000170  -0.000053
    20  H    0.004505   0.560889  -0.031119   0.004221  -0.002816  -0.002676
    21  H   -0.002912  -0.031119   0.560501  -0.002949   0.004147  -0.002436
    22  H    0.002573   0.004221  -0.002949   0.548567  -0.028250  -0.030251
    23  H    0.000170  -0.002816   0.004147  -0.028250   0.540520  -0.027182
    24  H   -0.000053  -0.002676  -0.002436  -0.030251  -0.027182   0.549250
    25  C   -0.041124  -0.003087  -0.003061  -0.000066  -0.000071  -0.000085
    26  C   -0.003200  -0.000066  -0.000062  -0.000001  -0.000001   0.000001
    27  C   -0.000051  -0.000001  -0.000001   0.000000  -0.000000  -0.000000
    28  H    0.004445   0.002388   0.000240  -0.000001   0.000013   0.000001
    29  H   -0.002769   0.000244   0.002326   0.000013  -0.000001   0.000001
    30  H    0.000238   0.000017  -0.000003   0.000000  -0.000002   0.000000
    31  H    0.002377  -0.000003   0.000017  -0.000002   0.000000   0.000000
    32  H    0.000013   0.000000  -0.000002   0.000000  -0.000000  -0.000000
    33  H   -0.000001  -0.000002   0.000000  -0.000000   0.000000  -0.000000
    34  H    0.000001   0.000000   0.000000  -0.000000  -0.000000   0.000000
              25         26         27         28         29         30
     1  C   -0.000000  -0.000000   0.000000   0.000000  -0.000000   0.000000
     2  C    0.000000  -0.000000   0.000000   0.000000   0.000000  -0.000000
     3  C    0.000000   0.000000  -0.000000  -0.000000  -0.000000   0.000000
     4  C   -0.000000   0.000000   0.000000  -0.000000   0.000000  -0.000000
     5  C   -0.000000  -0.000000   0.000000   0.000000  -0.000000  -0.000000
     6  C    0.000000   0.000000  -0.000000  -0.000000   0.000000   0.000000
     7  H    0.000000  -0.000000   0.000000   0.000000  -0.000000  -0.000000
     8  H   -0.000000   0.000000  -0.000000  -0.000000   0.000000   0.000000
     9  H   -0.000000  -0.000000   0.000000   0.000000  -0.000000  -0.000000
    10  H   -0.000000  -0.000000   0.000000   0.000000  -0.000000  -0.000000
    11  H   -0.000000   0.000000   0.000000  -0.000000   0.000000   0.000000
    12  N    0.000000  -0.000000   0.000000   0.000000  -0.000000   0.000000
    13  O   -0.000000  -0.000000   0.000000   0.000000  -0.000000  -0.000000
    14  O   -0.000000   0.000000  -0.000000  -0.000000   0.000000   0.000000
    15  C    0.355452  -0.051763   0.004073  -0.042056  -0.041372  -0.003254
    16  C   -0.051594   0.003979  -0.000085  -0.003340  -0.003349  -0.000064
    17  C    0.004060  -0.000085   0.000001  -0.000052  -0.000049  -0.000000
    18  H   -0.041520  -0.003175  -0.000053  -0.002796   0.004413   0.002400
    19  H   -0.041124  -0.003200  -0.000051   0.004445  -0.002769   0.000238
    20  H   -0.003087  -0.000066  -0.000001   0.002388   0.000244   0.000017
    21  H   -0.003061  -0.000062  -0.000001   0.000240   0.002326  -0.000003
    22  H   -0.000066  -0.000001   0.000000  -0.000001   0.000013   0.000000
    23  H   -0.000071  -0.000001  -0.000000   0.000013  -0.000001  -0.000002
    24  H   -0.000085   0.000001  -0.000000   0.000001   0.000001   0.000000
    25  C    5.083686   0.352123  -0.057220   0.395975   0.396758  -0.043878
    26  C    0.352123   5.059968   0.340785  -0.041849  -0.041235   0.398960
    27  C   -0.057220   0.340785   5.096934  -0.002826  -0.002813  -0.039902
    28  H    0.395975  -0.041849  -0.002826   0.567922  -0.031329  -0.002993
    29  H    0.396758  -0.041235  -0.002813  -0.031329   0.560540   0.004533
    30  H   -0.043878   0.398960  -0.039902  -0.002993   0.004533   0.565822
    31  H   -0.043515   0.399402  -0.039560   0.004556  -0.002956  -0.031664
    32  H   -0.003792  -0.038754   0.391636   0.000157   0.002590   0.004207
    33  H   -0.003835  -0.039031   0.391125   0.002624   0.000157  -0.002899
    34  H    0.004397  -0.035810   0.394162  -0.000059  -0.000057  -0.002506
              31         32         33         34
     1  C    0.000000   0.000000  -0.000000  -0.000000
     2  C    0.000000   0.000000   0.000000  -0.000000
     3  C   -0.000000   0.000000  -0.000000   0.000000
     4  C    0.000000  -0.000000   0.000000  -0.000000
     5  C    0.000000   0.000000   0.000000  -0.000000
     6  C   -0.000000  -0.000000  -0.000000   0.000000
     7  H    0.000000  -0.000000   0.000000  -0.000000
     8  H   -0.000000   0.000000  -0.000000   0.000000
     9  H    0.000000   0.000000   0.000000  -0.000000
    10  H    0.000000   0.000000  -0.000000  -0.000000
    11  H   -0.000000  -0.000000   0.000000   0.000000
    12  N    0.000000   0.000000  -0.000000  -0.000000
    13  O   -0.000000  -0.000000  -0.000000  -0.000000
    14  O   -0.000000  -0.000000  -0.000000   0.000000
    15  C   -0.003250  -0.000069  -0.000069  -0.000087
    16  C   -0.000064  -0.000000  -0.000000   0.000001
    17  C   -0.000000  -0.000000  -0.000000  -0.000000
    18  H    0.000238  -0.000001   0.000013   0.000001
    19  H    0.002377   0.000013  -0.000001   0.000001
    20  H   -0.000003   0.000000  -0.000002   0.000000
    21  H    0.000017  -0.000002   0.000000   0.000000
    22  H   -0.000002   0.000000  -0.000000  -0.000000
    23  H    0.000000  -0.000000   0.000000  -0.000000
    24  H    0.000000  -0.000000  -0.000000   0.000000
    25  C   -0.043515  -0.003792  -0.003835   0.004397
    26  C    0.399402  -0.038754  -0.039031  -0.035810
    27  C   -0.039560   0.391636   0.391125   0.394162
    28  H    0.004556   0.000157   0.002624  -0.000059
    29  H   -0.002956   0.002590   0.000157  -0.000057
    30  H   -0.031664   0.004207  -0.002899  -0.002506
    31  H    0.561474  -0.002882   0.004207  -0.002507
    32  H   -0.002882   0.545640  -0.029074  -0.027269
    33  H    0.004207  -0.029074   0.549802  -0.027531
    34  H   -0.002507  -0.027269  -0.027531   0.536527
 Mulliken charges:
               1
     1  C   -0.171596
     2  C   -0.223721
     3  C   -0.176269
     4  C    0.159004
     5  C   -0.170919
     6  C   -0.218596
     7  H    0.225773
     8  H    0.230929
     9  H    0.278578
    10  H    0.275312
    11  H    0.223149
    12  N    0.488084
    13  O   -0.460498
    14  O   -0.461202
    15  C   -0.299120
    16  C   -0.301809
    17  C   -0.483798
    18  H    0.149748
    19  H    0.152797
    20  H    0.154316
    21  H    0.154585
    22  H    0.156611
    23  H    0.161025
    24  H    0.152308
    25  C   -0.299604
    26  C   -0.300187
    27  C   -0.476204
    28  H    0.148982
    29  H    0.154355
    30  H    0.150987
    31  H    0.154132
    32  H    0.157598
    33  H    0.154514
    34  H    0.160737
 Sum of Mulliken charges =  -0.00000
 Mulliken charges with hydrogens summed into heavy atoms:
               1
     1  C    0.054177
     2  C    0.007208
     3  C    0.102309
     4  C    0.159004
     5  C    0.104392
     6  C    0.004553
    12  N    0.488084
    13  O   -0.460498
    14  O   -0.461202
    15  C    0.003426
    16  C    0.007091
    17  C   -0.013854
    25  C    0.003734
    26  C    0.004932
    27  C   -0.003356
 Electronic spatial extent (au):  <R**2>=           7520.9476
 Charge=             -0.0000 electrons
 Dipole moment (field-independent basis, Debye):
    X=             -1.0435    Y=             -5.0086    Z=             -0.4074  Tot=              5.1323
 Quadrupole moment (field-independent basis, Debye-Ang):
   XX=            -82.0858   YY=           -100.7206   ZZ=            -95.7747
   XY=             12.9328   XZ=              2.0221   YZ=              0.1033
 Traceless Quadrupole moment (field-independent basis, Debye-Ang):
   XX=             10.7745   YY=             -7.8602   ZZ=             -2.9143
   XY=             12.9328   XZ=              2.0221   YZ=              0.1033
 Octapole moment (field-independent basis, Debye-Ang**2):
  XXX=           -102.2452  YYY=            -34.9968  ZZZ=              3.1416  XYY=             10.3821
  XXY=            -49.4367  XXZ=             -7.4788  XZZ=             -0.7199  YZZ=             12.7604
  YYZ=             -4.3020  XYZ=              0.8282
 Hexadecapole moment (field-independent basis, Debye-Ang**3):
 XXXX=          -8077.8283 YYYY=          -1646.2779 ZZZZ=           -205.2367 XXXY=            102.5484
 XXXZ=             69.7184 YYYX=            109.4287 YYYZ=              3.8274 ZZZX=            -10.4167
 ZZZY=              6.4392 XXYY=          -1725.7726 XXZZ=          -1499.8101 YYZZ=           -300.2715
 XXYZ=             27.0709 YYXZ=             17.3628 ZZXY=            -38.3844
 N-N= 8.915434260003D+02 E-N=-3.346084982029D+03  KE= 6.679613568461D+02
 Leave Link  601 at Thu May  6 07:50:34 2021, MaxMem=   524288000 cpu:               0.4 elap:               0.5
 (Enter /opt/gaussian/g16_legacy/l9999.exe)
 1\1\GINC-TRUENO93\SP\RMP2-FC\6-31G(d)\C12H19N1O2\JRAMOS\06-May-2021\0\
 \#p 6-31g* mp2\\Input file generated by CHIRIPA (05-May-2021 14:55:22)
 \\0,1\C,0,1.914143,0.,0.\C,0,1.214143,1.211,0.\C,0,-0.183857,1.223,0.\
 C,0,-0.852857,0.,0.\C,0,-0.183857,-1.223,0.\C,0,1.214143,-1.211,0.\H,0
 ,3.000143,0.,0.\H,0,1.755143,2.153,0.\H,0,-0.750857,2.146,0.\H,0,-0.75
 0857,-2.146,0.\H,0,1.755143,-2.153,0.\N,0,-2.332857,0.,0.\O,0,-2.89885
 7,-1.091,0.\O,0,-2.898857,1.091,0.\C,0,-1.057611,6.872309,-0.217735\C,
 0,-0.149378,5.813774,-0.844314\C,0,0.89332,5.27458,0.135402\H,0,-0.440
 64,7.700885,0.156099\H,0,-1.563642,6.440162,0.656666\H,0,0.353735,6.24
 737,-1.718092\H,0,-0.768599,4.987709,-1.216872\H,0,0.406612,4.816788,1
 .002664\H,0,1.535323,6.083606,0.498597\H,0,1.531788,4.519228,-0.33328\
 C,0,-2.105249,7.420944,-1.184784\C,0,-3.013482,8.479479,-0.558205\C,0,
 -4.05618,9.018673,-1.537922\H,0,-1.599219,7.85309,-2.059186\H,0,-2.722
 22,6.592367,-1.558619\H,0,-2.394262,9.305543,-0.185647\H,0,-3.516595,8
 .045882,0.315573\H,0,-4.698183,8.209646,-1.901116\H,0,-3.569472,9.4764
 64,-2.405183\H,0,-4.694648,9.774024,-1.069239\\Version=EM64L-G16RevA.0
 3\State=1-A\HF=-669.5355745\MP2=-671.6269318\RMSD=6.839e-09\PG=C01 [X(
 C12H19N1O2)]\\@


 IT IS UNWORTHY OF EXCELLENT MEN TO LOSE HOURS LIKE SLAVES IN THE LABOR
 OF CALCULATION WHICH COULD BE SAFELY RELEGATED TO ANYONE ELSE
 IF A MACHINE WERE USED.
    -- G.W. VON LEIBNIZ
 Job cpu time:       0 days  0 hours  2 minutes 49.8 seconds.
 Elapsed time:       0 days  0 hours  1 minutes 26.5 seconds.
 File lengths (MBytes):  RWF=     43 Int=      0 D2E=      0 Chk=      6 Scr=      1
 Normal termination of Gaussian 16 at Thu May  6 07:50:35 2021.
