 Entering Gaussian System, Link 0=/opt/gaussian/g16_legacy/g16
 Input=gaussian_01839_2_1.com
 Output=gaussian_01839_2_1.log
 Initial command:
 /opt/gaussian/g16_legacy/l1.exe "/scratch-local/jramos/2598483/Gau-30801.inp" -scrdir="/scratch-local/jramos/2598483/"
 Entering Link 1 = /opt/gaussian/g16_legacy/l1.exe PID=     30802.
  
 Copyright (c) 1988,1990,1992,1993,1995,1998,2003,2009,2016,
            Gaussian, Inc.  All Rights Reserved.
  
 This is part of the Gaussian(R) 16 program.  It is based on
 the Gaussian(R) 09 system (copyright 2009, Gaussian, Inc.),
 the Gaussian(R) 03 system (copyright 2003, Gaussian, Inc.),
 the Gaussian(R) 98 system (copyright 1998, Gaussian, Inc.),
 the Gaussian(R) 94 system (copyright 1995, Gaussian, Inc.),
 the Gaussian 92(TM) system (copyright 1992, Gaussian, Inc.),
 the Gaussian 90(TM) system (copyright 1990, Gaussian, Inc.),
 the Gaussian 88(TM) system (copyright 1988, Gaussian, Inc.),
 the Gaussian 86(TM) system (copyright 1986, Carnegie Mellon
 University), and the Gaussian 82(TM) system (copyright 1983,
 Carnegie Mellon University). Gaussian is a federally registered
 trademark of Gaussian, Inc.
  
 This software contains proprietary and confidential information,
 including trade secrets, belonging to Gaussian, Inc.
  
 This software is provided under written license and may be
 used, copied, transmitted, or stored only in accord with that
 written license.
  
 The following legend is applicable only to US Government
 contracts under FAR:
  
                    RESTRICTED RIGHTS LEGEND
  
 Use, reproduction and disclosure by the US Government is
 subject to restrictions as set forth in subparagraphs (a)
 and (c) of the Commercial Computer Software - Restricted
 Rights clause in FAR 52.227-19.
  
 Gaussian, Inc.
 340 Quinnipiac St., Bldg. 40, Wallingford CT 06492
  
  
 ---------------------------------------------------------------
 Warning -- This program may not be used in any manner that
 competes with the business of Gaussian, Inc. or will provide
 assistance to any competitor of Gaussian, Inc.  The licensee
 of this program is prohibited from giving any competitor of
 Gaussian, Inc. access to this program.  By using this program,
 the user acknowledges that Gaussian, Inc. is engaged in the
 business of creating and licensing software in the field of
 computational chemistry and represents and warrants to the
 licensee that it is not a competitor of Gaussian, Inc. and that
 it will not use this program in any manner prohibited above.
 ---------------------------------------------------------------
  

 Cite this work as:
 Gaussian 16, Revision A.03,
 M. J. Frisch, G. W. Trucks, H. B. Schlegel, G. E. Scuseria, 
 M. A. Robb, J. R. Cheeseman, G. Scalmani, V. Barone, 
 G. A. Petersson, H. Nakatsuji, X. Li, M. Caricato, A. V. Marenich, 
 J. Bloino, B. G. Janesko, R. Gomperts, B. Mennucci, H. P. Hratchian, 
 J. V. Ortiz, A. F. Izmaylov, J. L. Sonnenberg, D. Williams-Young, 
 F. Ding, F. Lipparini, F. Egidi, J. Goings, B. Peng, A. Petrone, 
 T. Henderson, D. Ranasinghe, V. G. Zakrzewski, J. Gao, N. Rega, 
 G. Zheng, W. Liang, M. Hada, M. Ehara, K. Toyota, R. Fukuda, 
 J. Hasegawa, M. Ishida, T. Nakajima, Y. Honda, O. Kitao, H. Nakai, 
 T. Vreven, K. Throssell, J. A. Montgomery, Jr., J. E. Peralta, 
 F. Ogliaro, M. J. Bearpark, J. J. Heyd, E. N. Brothers, K. N. Kudin, 
 V. N. Staroverov, T. A. Keith, R. Kobayashi, J. Normand, 
 K. Raghavachari, A. P. Rendell, J. C. Burant, S. S. Iyengar, 
 J. Tomasi, M. Cossi, J. M. Millam, M. Klene, C. Adamo, R. Cammi, 
 J. W. Ochterski, R. L. Martin, K. Morokuma, O. Farkas, 
 J. B. Foresman, and D. J. Fox, Gaussian, Inc., Wallingford CT, 2016.
 
 ******************************************
 Gaussian 16:  EM64L-G16RevA.03 25-Dec-2016
                 6-May-2021 
 ******************************************
 %chk=gaussian_01839_2_1.chk
 %nproc=2
 Will use up to    2 processors via shared memory.
 %mem=4000Mb
 -------------
 #p 6-31g* mp2
 -------------
 1/38=1,172=1/1;
 2/12=2,17=6,18=5,40=1/2;
 3/5=1,6=6,7=1,11=9,25=1,30=1/1,2,3;
 4//1;
 5/5=2,38=5/2;
 8/10=2/1;
 9/16=-3/6;
 6/7=2,8=2,9=2,10=2/1;
 99/5=1,9=1/99;
 Leave Link    1 at Thu May  6 14:08:20 2021, MaxMem=   524288000 cpu:               0.1 elap:               0.1
 (Enter /opt/gaussian/g16_legacy/l101.exe)
 ------------------------------------------------------
 Input file generated by CHIRIPA (05-May-2021 14:55:21)
 ------------------------------------------------------
 Symbolic Z-matrix:
 Charge =  0 Multiplicity = 1
 C                     1.91414   0.        0. 
 C                     1.21414   1.211     0. 
 C                    -0.18386   1.223     0. 
 C                    -0.85286   0.        0. 
 C                    -0.18386  -1.223     0. 
 C                     1.21414  -1.211     0. 
 H                     3.00014   0.        0. 
 H                     1.75514   2.153     0. 
 H                    -0.75086   2.146     0. 
 H                    -0.75086  -2.146     0. 
 H                     1.75514  -2.153     0. 
 N                    -2.33286   0.        0. 
 O                    -2.89886  -1.091     0. 
 O                    -2.89886   1.091     0. 
 C                     4.63959   3.82014  -0.85077 
 C                     4.40648   5.12604  -1.61122 
 C                     3.98115   4.89749  -3.06196 
 H                     5.40791   3.23224  -1.37135 
 H                     3.71869   3.22114  -0.87382 
 H                     5.32713   5.72301  -1.58555 
 H                     3.63877   5.71098  -1.08866 
 H                     3.05016   4.32298  -3.10451 
 H                     4.74811   4.33508  -3.60423 
 H                     3.8199    5.84419  -3.58694 
 C                     5.06534   4.03217   0.60096 
 C                     5.29844   2.72628   1.36141 
 C                     5.72378   2.95483   2.81215 
 H                     5.98624   4.63117   0.62401 
 H                     4.29702   4.62007   1.12154 
 H                     6.06616   2.14133   0.83885 
 H                     4.3778    2.12931   1.33574 
 H                     4.95682   3.51724   3.35442 
 H                     6.65477   3.52933   2.8547 
 H                     5.88503   2.00812   3.33713 
 
 ITRead=  0  0  0  0  0  0  0  0  0  0  0  0  0  0  0  0  0  0  0  0
 ITRead=  0  0  0  0  0  0  0  0  0  0  0  0  0  0
 MicOpt= -1 -1 -1 -1 -1 -1 -1 -1 -1 -1 -1 -1 -1 -1 -1 -1 -1 -1 -1 -1
 MicOpt= -1 -1 -1 -1 -1 -1 -1 -1 -1 -1 -1 -1 -1 -1
 NAtoms=     34 NQM=       34 NQMF=       0 NMMI=      0 NMMIF=      0
                NMic=       0 NMicF=      0.
                    Isotopes and Nuclear Properties:
 (Nuclear quadrupole moments (NQMom) in fm**2, nuclear magnetic moments (NMagM)
  in nuclear magnetons)

  Atom         1           2           3           4           5           6           7           8           9          10
 IAtWgt=          12          12          12          12          12          12           1           1           1           1
 AtmWgt=  12.0000000  12.0000000  12.0000000  12.0000000  12.0000000  12.0000000   1.0078250   1.0078250   1.0078250   1.0078250
 NucSpn=           0           0           0           0           0           0           1           1           1           1
 AtZEff=  -0.0000000  -0.0000000  -0.0000000  -0.0000000  -0.0000000  -0.0000000  -0.0000000  -0.0000000  -0.0000000  -0.0000000
 NQMom=    0.0000000   0.0000000   0.0000000   0.0000000   0.0000000   0.0000000   0.0000000   0.0000000   0.0000000   0.0000000
 NMagM=    0.0000000   0.0000000   0.0000000   0.0000000   0.0000000   0.0000000   2.7928460   2.7928460   2.7928460   2.7928460
 AtZNuc=   6.0000000   6.0000000   6.0000000   6.0000000   6.0000000   6.0000000   1.0000000   1.0000000   1.0000000   1.0000000

  Atom        11          12          13          14          15          16          17          18          19          20
 IAtWgt=           1          14          16          16          12          12          12           1           1           1
 AtmWgt=   1.0078250  14.0030740  15.9949146  15.9949146  12.0000000  12.0000000  12.0000000   1.0078250   1.0078250   1.0078250
 NucSpn=           1           2           0           0           0           0           0           1           1           1
 AtZEff=  -0.0000000  -0.0000000  -0.0000000  -0.0000000  -0.0000000  -0.0000000  -0.0000000  -0.0000000  -0.0000000  -0.0000000
 NQMom=    0.0000000   2.0440000   0.0000000   0.0000000   0.0000000   0.0000000   0.0000000   0.0000000   0.0000000   0.0000000
 NMagM=    2.7928460   0.4037610   0.0000000   0.0000000   0.0000000   0.0000000   0.0000000   2.7928460   2.7928460   2.7928460
 AtZNuc=   1.0000000   7.0000000   8.0000000   8.0000000   6.0000000   6.0000000   6.0000000   1.0000000   1.0000000   1.0000000

  Atom        21          22          23          24          25          26          27          28          29          30
 IAtWgt=           1           1           1           1          12          12          12           1           1           1
 AtmWgt=   1.0078250   1.0078250   1.0078250   1.0078250  12.0000000  12.0000000  12.0000000   1.0078250   1.0078250   1.0078250
 NucSpn=           1           1           1           1           0           0           0           1           1           1
 AtZEff=  -0.0000000  -0.0000000  -0.0000000  -0.0000000  -0.0000000  -0.0000000  -0.0000000  -0.0000000  -0.0000000  -0.0000000
 NQMom=    0.0000000   0.0000000   0.0000000   0.0000000   0.0000000   0.0000000   0.0000000   0.0000000   0.0000000   0.0000000
 NMagM=    2.7928460   2.7928460   2.7928460   2.7928460   0.0000000   0.0000000   0.0000000   2.7928460   2.7928460   2.7928460
 AtZNuc=   1.0000000   1.0000000   1.0000000   1.0000000   6.0000000   6.0000000   6.0000000   1.0000000   1.0000000   1.0000000

  Atom        31          32          33          34
 IAtWgt=           1           1           1           1
 AtmWgt=   1.0078250   1.0078250   1.0078250   1.0078250
 NucSpn=           1           1           1           1
 AtZEff=  -0.0000000  -0.0000000  -0.0000000  -0.0000000
 NQMom=    0.0000000   0.0000000   0.0000000   0.0000000
 NMagM=    2.7928460   2.7928460   2.7928460   2.7928460
 AtZNuc=   1.0000000   1.0000000   1.0000000   1.0000000
 Leave Link  101 at Thu May  6 14:08:21 2021, MaxMem=   524288000 cpu:               0.4 elap:               0.3
 (Enter /opt/gaussian/g16_legacy/l202.exe)
                          Input orientation:                          
 ---------------------------------------------------------------------
 Center     Atomic      Atomic             Coordinates (Angstroms)
 Number     Number       Type             X           Y           Z
 ---------------------------------------------------------------------
      1          6           0        1.914143    0.000000    0.000000
      2          6           0        1.214143    1.211000    0.000000
      3          6           0       -0.183857    1.223000    0.000000
      4          6           0       -0.852857    0.000000    0.000000
      5          6           0       -0.183857   -1.223000    0.000000
      6          6           0        1.214143   -1.211000    0.000000
      7          1           0        3.000143    0.000000    0.000000
      8          1           0        1.755143    2.153000    0.000000
      9          1           0       -0.750857    2.146000    0.000000
     10          1           0       -0.750857   -2.146000    0.000000
     11          1           0        1.755143   -2.153000    0.000000
     12          7           0       -2.332857    0.000000    0.000000
     13          8           0       -2.898857   -1.091000    0.000000
     14          8           0       -2.898857    1.091000    0.000000
     15          6           0        4.639592    3.820140   -0.850768
     16          6           0        4.406485    5.126037   -1.611216
     17          6           0        3.981148    4.897487   -3.061956
     18          1           0        5.407908    3.232240   -1.371352
     19          1           0        3.718689    3.221140   -0.873821
     20          1           0        5.327128    5.723007   -1.585552
     21          1           0        3.638772    5.710983   -1.088655
     22          1           0        3.050162    4.322983   -3.104509
     23          1           0        4.748111    4.335076   -3.604230
     24          1           0        3.819898    5.844191   -3.586941
     25          6           0        5.065338    4.032172    0.600959
     26          6           0        5.298444    2.726275    1.361407
     27          6           0        5.723782    2.954825    2.812147
     28          1           0        5.986240    4.631172    0.624012
     29          1           0        4.297021    4.620072    1.121543
     30          1           0        6.066158    2.141329    0.838846
     31          1           0        4.377801    2.129305    1.335744
     32          1           0        4.956818    3.517236    3.354422
     33          1           0        6.654768    3.529329    2.854701
     34          1           0        5.885032    2.008121    3.337133
 ---------------------------------------------------------------------
                    Distance matrix (angstroms):
                    1          2          3          4          5
     1  C    0.000000
     2  C    1.398757   0.000000
     3  C    2.428443   1.398052   0.000000
     4  C    2.767000   2.395623   1.394019   0.000000
     5  C    2.428443   2.806913   2.446000   1.394019   0.000000
     6  C    1.398757   2.422000   2.806913   2.395623   1.398052
     7  H    1.086000   2.157850   3.410804   3.853000   3.410804
     8  H    2.158863   1.086299   2.150493   3.381874   3.893212
     9  H    3.421628   2.176109   1.083244   2.148423   3.416380
    10  H    3.421628   3.889817   3.416380   2.148423   1.083244
    11  H    2.158863   3.407224   3.893212   3.381874   2.150493
    12  N    4.247000   3.748030   2.472636   1.480000   2.472636
    13  O    4.935104   4.713382   3.567327   2.318706   2.718207
    14  O    4.935104   4.114750   2.718207   2.318706   3.567327
    15  C    4.769208   4.389205   5.543880   6.744203   7.030130
    16  C    5.923178   5.302318   6.237063   7.518840   7.998595
    17  C    6.134612   5.533722   6.342294   7.531836   8.011442
    18  H    4.953219   4.853214   6.097990   7.178103   7.279945
    19  H    3.794166   3.328209   4.470570   5.660242   5.978613
    20  H    6.849471   6.307839   7.289375   8.570823   9.007327
    21  H    6.064226   5.226265   5.994969   7.346783   7.992358
    22  H    5.442123   4.763757   5.450390   6.599978   7.131254
    23  H    6.309892   5.936266   6.855640   7.946962   8.258752
    24  H    7.117065   6.412688   7.088837   8.297913   8.879267
    25  C    5.152630   4.811639   5.983866   7.186417   7.451982
    26  C    4.554064   4.564099   5.845416   6.864729   6.892447
    27  C    5.581443   5.593384   6.768130   7.738950   7.762898
    28  H    6.198316   5.904225   7.076378   8.283139   8.528236
    29  H    5.317991   4.731149   5.733779   7.008863   7.448330
    30  H    4.746386   5.011110   6.372572   7.291208   7.147381
    31  H    3.519625   3.554747   4.838835   5.803269   5.816432
    32  H    5.734193   5.529782   6.553030   7.574656   7.755548
    33  H    6.563460   6.566915   7.761138   8.773250   8.803450
    34  H    5.562101   5.795607   6.970243   7.782555   7.642514
                    6          7          8          9         10
     6  C    0.000000
     7  H    2.157850   0.000000
     8  H    3.407224   2.487053   0.000000
     9  H    3.889817   4.321495   2.506010   0.000000
    10  H    2.176109   4.321495   4.976087   4.292000   0.000000
    11  H    1.086299   2.487053   4.306000   4.976087   2.506010
    12  N    3.748030   5.333000   4.620298   2.666091   2.666091
    13  O    4.114750   5.999040   5.673028   3.884852   2.393100
    14  O    4.713382   5.999040   4.773632   2.393100   3.884852
    15  C    6.145720   4.243238   3.438489   5.708195   8.085516
    16  C    7.276339   5.554284   4.297043   6.170479   9.059620
    17  C    7.371940   5.858611   4.675776   6.272011   9.020984
    18  H    6.261841   4.257383   4.048217   6.402414   8.290745
    19  H    5.165286   3.414032   2.400000   4.679352   7.038934
    20  H    8.216512   6.378216   5.293203   7.228475  10.068622
    21  H    7.414705   5.848790   4.170428   5.758743   9.065660
    22  H    6.605597   5.322467   4.002983   5.368890   8.119942
    23  H    7.499224   5.902436   5.168151   6.929731   9.232197
    24  H    8.332576   6.905991   5.545651   6.887275   9.879327
    25  C    6.533277   4.569966   3.853548   6.143852   8.506414
    26  C    5.834130   3.816830   3.838887   6.227695   7.885844
    27  C    6.752711   4.904831   4.929624   7.105161   8.709049
    28  H    7.569232   5.545622   4.942966   7.207909   9.576426
    29  H    6.690545   4.927963   3.715568   5.732361   8.515789
    30  H    5.956830   3.832675   4.391884   6.868433   8.096700
    31  H    4.790677   2.866373   2.943316   5.299776   6.809227
    32  H    6.900433   5.239434   4.833633   6.760916   8.712172
    33  H    7.760183   5.827672   5.835231   8.056438   9.757149
    34  H    6.581520   4.846812   5.311632   7.429030   8.510476
                   11         12         13         14         15
    11  H    0.000000
    12  N    4.620298   0.000000
    13  O    4.773632   1.229080   0.000000
    14  O    5.673028   1.229080   2.182000   0.000000
    15  C    6.687470   7.995769   9.037218   8.062272   0.000000
    16  C    7.912649   8.619223   9.727054   8.499739   1.529048
    17  C    8.002502   8.557313   9.621435   8.437973   2.546287
    18  H    6.650121   8.499848   9.464320   8.687224   1.098610
    19  H    5.787958   6.910898   7.946699   7.006638   1.098815
    20  H    8.792300   9.692376  10.798680   9.572685   2.152560
    21  H    8.159378   8.334318   9.496986   8.078985   2.152561
    22  H    7.297493   7.569878   8.622066   7.448122   2.803299
    23  H    8.002716   9.051158  10.045342   9.054867   2.803300
    24  H    9.004689   9.212877  10.300713   8.977786   3.500760
    25  C    7.040944   8.447062   9.488754   8.511172   1.527655
    26  C    6.181888   8.217223   9.144439   8.468961   2.554280
    27  C    7.053236   9.030426   9.931101   9.259153   3.916782
    28  H    8.019761   9.541725  10.586670   9.584736   2.155507
    29  H    7.320759   8.158321   9.254991   8.092766   2.155750
    30  H    6.142457   8.708180   9.566771   9.065227   2.776381
    31  H    5.196218   7.165967   8.068725   7.470746   2.776381
    32  H    7.324920   8.761419   9.705649   8.879775   4.228003
    33  H    8.027734  10.068907  10.989473  10.264819   4.228003
    34  H    6.745915   9.094103   9.894327   9.441095   4.730016
                   16         17         18         19         20
    16  C    0.000000
    17  C    1.528984   0.000000
    18  H    2.155655   2.768905   0.000000
    19  H    2.155330   2.768927   1.761000   0.000000
    20  H    1.097550   2.161692   2.501265   3.058263   0.000000
    21  H    1.097550   2.161692   3.058419   2.500372   1.759999
    22  H    2.171274   1.094806   3.122902   2.576229   3.074390
    23  H    2.171274   1.094806   2.576300   3.123411   2.517275
    24  H    2.182503   1.094468   3.775301   3.775137   2.508383
    25  C    2.554280   3.916782   2.155750   2.155507   2.776380
    26  C    3.923128   5.100546   2.781358   2.781503   4.203069
    27  C    5.100546   6.427736   4.204569   4.204484   5.211518
    28  H    2.781503   4.204483   2.504587   3.061614   2.551216
    29  H    2.781358   4.204569   3.061809   2.504587   3.099347
    30  H    4.203070   5.211519   2.551148   3.099973   4.387743
    31  H    4.203070   5.211519   3.099347   2.551217   4.727567
    32  H    5.248682   6.635279   4.755801   4.415730   5.422721
    33  H    5.248682   6.635279   4.416157   4.755777   5.127446
    34  H    6.032716   7.274720   4.888348   4.888414   6.192291
                   21         22         23         24         25
    21  H    0.000000
    22  H    2.517275   0.000000
    23  H    3.074389   1.769999   0.000000
    24  H    2.508383   1.771809   1.771809   0.000000
    25  C    2.776381   4.228002   4.228002   4.730015   0.000000
    26  C    4.203070   5.248681   5.248682   6.032715   1.529048
    27  C    5.211519   6.635278   6.635278   7.274719   2.546287
    28  H    3.099972   4.755776   4.415729   4.888413   1.098814
    29  H    2.551148   4.416156   4.755800   4.888347   1.098611
    30  H    4.727567   5.422720   5.127446   6.192290   2.152561
    31  H    4.387743   5.127445   5.422721   6.192290   2.152561
    32  H    5.127446   6.782504   7.009655   7.408767   2.803301
    33  H    5.422721   7.009654   6.782504   7.408767   2.803300
    34  H    6.192291   7.408767   7.408767   8.180649   3.500761
                   26         27         28         29         30
    26  C    0.000000
    27  C    1.528985   0.000000
    28  H    2.155330   2.768927   0.000000
    29  H    2.155655   2.768905   1.761000   0.000000
    30  H    1.097550   2.161692   2.500372   3.058420   0.000000
    31  H    1.097550   2.161692   3.058264   2.501265   1.760000
    32  H    2.171275   1.094807   3.123412   2.576301   3.074391
    33  H    2.171276   1.094806   2.576230   3.122904   2.517276
    34  H    2.182504   1.094468   3.775138   3.775302   2.508384
                   31         32         33         34
    31  H    0.000000
    32  H    2.517275   0.000000
    33  H    3.074390   1.770000   0.000000
    34  H    2.508384   1.771809   1.771809   0.000000
 Stoichiometry    C12H19NO2
 Framework group  C1[X(C12H19NO2)]
 Deg. of freedom    96
 Full point group                 C1      NOp   1
 Largest Abelian subgroup         C1      NOp   1
 Largest concise Abelian subgroup C1      NOp   1
                         Standard orientation:                         
 ---------------------------------------------------------------------
 Center     Atomic      Atomic             Coordinates (Angstroms)
 Number     Number       Type             X           Y           Z
 ---------------------------------------------------------------------
      1          6           0        0.831945   -1.019631    1.119291
      2          6           0        0.758947   -0.110078    0.059147
      3          6           0        1.924490    0.404396   -0.516504
      4          6           0        3.151795   -0.014206   -0.004855
      5          6           0        3.257323   -0.918988    1.050381
      6          6           0        2.078702   -1.420477    1.610658
      7          1           0       -0.078556   -1.414243    1.560499
      8          1           0       -0.207925    0.203003   -0.324497
      9          1           0        1.896917    1.109803   -1.338123
     10          1           0        4.235640   -1.212341    1.411292
     11          1           0        2.138427   -2.126716    2.433886
     12          7           0        4.392626    0.523571   -0.606134
     13          8           0        5.461649    0.138960   -0.137197
     14          8           0        4.272671    1.319510   -1.534966
     15          6           0       -3.545699    0.702153    0.333775
     16          6           0       -4.071704    2.070159   -0.101963
     17          6           0       -3.609365    3.201366    0.816953
     18          1           0       -3.876252    0.499734    1.361737
     19          1           0       -2.447517    0.730177    0.358376
     20          1           0       -5.168528    2.039151   -0.127070
     21          1           0       -3.740021    2.269261   -1.129075
     22          1           0       -2.516330    3.261096    0.834472
     23          1           0       -3.952954    3.029680    1.842170
     24          1           0       -3.996838    4.170337    0.487075
     25          6           0       -3.999368   -0.438888   -0.575036
     26          6           0       -3.473362   -1.806893   -0.139298
     27          6           0       -3.935702   -2.938101   -1.058213
     28          1           0       -5.097549   -0.466911   -0.599637
     29          1           0       -3.668814   -0.236468   -1.602998
     30          1           0       -3.805045   -2.005996    0.887814
     31          1           0       -2.376537   -1.775886   -0.114192
     32          1           0       -3.592112   -2.766415   -2.083431
     33          1           0       -5.028737   -2.997832   -1.075733
     34          1           0       -3.548229   -3.907072   -0.728336
 ---------------------------------------------------------------------
 Rotational constants (GHZ):           0.7593820           0.1793896           0.1600330
 Leave Link  202 at Thu May  6 14:08:21 2021, MaxMem=   524288000 cpu:               0.1 elap:               0.2
 (Enter /opt/gaussian/g16_legacy/l301.exe)
 Standard basis: 6-31G(d) (6D, 7F)
 Ernie: Thresh=  0.10000D-02 Tol=  0.10000D-05 Strict=F.
 There are   263 symmetry adapted cartesian basis functions of A   symmetry.
 There are   263 symmetry adapted basis functions of A   symmetry.
   263 basis functions,   496 primitive gaussians,   263 cartesian basis functions
    57 alpha electrons       57 beta electrons
       nuclear repulsion energy       901.8481138294 Hartrees.
 IExCor=    0 DFT=F Ex=HF Corr=None ExCW=0 ScaHFX=  1.000000
 ScaDFX=  1.000000  1.000000  1.000000  1.000000 ScalE2=  1.000000  1.000000
 IRadAn=      5 IRanWt=     -1 IRanGd=            0 ICorTp=0 IEmpDi=  4
 NAtoms=   34 NActive=   34 NUniq=   34 SFac= 1.00D+00 NAtFMM=   60 NAOKFM=F Big=F
 Integral buffers will be    131072 words long.
 Raffenetti 1 integral format.
 Two-electron integral symmetry is turned on.
 Leave Link  301 at Thu May  6 14:08:21 2021, MaxMem=   524288000 cpu:               0.3 elap:               0.3
 (Enter /opt/gaussian/g16_legacy/l302.exe)
 NPDir=0 NMtPBC=     1 NCelOv=     1 NCel=       1 NClECP=     1 NCelD=      1
         NCelK=      1 NCelE2=     1 NClLst=     1 CellRange=     0.0.
 One-electron integrals computed using PRISM.
 One-electron integral symmetry used in STVInt
 NBasis=   263 RedAO= T EigKep=  4.77D-04  NBF=   263
 NBsUse=   263 1.00D-06 EigRej= -1.00D+00 NBFU=   263
 Leave Link  302 at Thu May  6 14:08:22 2021, MaxMem=   524288000 cpu:               0.9 elap:               0.7
 (Enter /opt/gaussian/g16_legacy/l303.exe)
 DipDrv:  MaxL=1.
 Leave Link  303 at Thu May  6 14:08:23 2021, MaxMem=   524288000 cpu:               0.2 elap:               0.1
 (Enter /opt/gaussian/g16_legacy/l401.exe)
 ExpMin= 1.61D-01 ExpMax= 5.48D+03 ExpMxC= 8.25D+02 IAcc=3 IRadAn=         5 AccDes= 0.00D+00
 Harris functional with IExCor=  205 and IRadAn=       5 diagonalized for initial guess.
 HarFok:  IExCor=  205 AccDes= 0.00D+00 IRadAn=         5 IDoV= 1 UseB2=F ITyADJ=14
 ICtDFT=  3500011 ScaDFX=  1.000000  1.000000  1.000000  1.000000
 FoFCou: FMM=F IPFlag=           0 FMFlag=      100000 FMFlg1=           0
         NFxFlg=           0 DoJE=T BraDBF=F KetDBF=T FulRan=T
         wScrn=  0.000000 ICntrl=       500 IOpCl=  0 I1Cent=   200000004 NGrid=           0
         NMat0=    1 NMatS0=      1 NMatT0=    0 NMatD0=    1 NMtDS0=    0 NMtDT0=    0
 Petite list used in FoFCou.
 Harris En= -670.655474527554    
 JPrj=0 DoOrth=F DoCkMO=F.
 Leave Link  401 at Thu May  6 14:08:31 2021, MaxMem=   524288000 cpu:              15.3 elap:               8.3
 (Enter /opt/gaussian/g16_legacy/l502.exe)
 Integral symmetry usage will be decided dynamically.
 Closed shell SCF:
 Using DIIS extrapolation, IDIIS=  1040.
 NGot=   524288000 LenX=   524144919 LenY=   524075309
 Requested convergence on RMS density matrix=1.00D-08 within 128 cycles.
 Requested convergence on MAX density matrix=1.00D-06.
 Requested convergence on             energy=1.00D-06.
 No special actions if energy rises.
 Fock matrices will be formed incrementally for  20 cycles.
 Integral accuracy reduced to 1.0D-05 until final iterations.

 Cycle   1  Pass 0  IDiag  1:
 FoFJK:  IHMeth= 1 ICntrl=       0 DoSepK=F KAlg= 0 I1Cent=           0 FoldK=F
 IRaf= 740000000 NMat=       1 IRICut=       1 DoRegI=T DoRafI=F ISym2E= 0 IDoP0=0 IntGTp=1.
 FoFCou: FMM=F IPFlag=           0 FMFlag=      100000 FMFlg1=           0
         NFxFlg=           0 DoJE=F BraDBF=F KetDBF=F FulRan=T
         wScrn=  0.000000 ICntrl=         0 IOpCl=  0 I1Cent=           0 NGrid=           0
         NMat0=    1 NMatS0=      1 NMatT0=    0 NMatD0=    1 NMtDS0=    0 NMtDT0=    0
 Symmetry not used in FoFCou.
 E= -668.741378164102    
 DIIS: error= 5.66D-02 at cycle   1 NSaved=   1.
 NSaved= 1 IEnMin= 1 EnMin= -668.741378164102     IErMin= 1 ErrMin= 5.66D-02
 ErrMax= 5.66D-02  0.00D+00 EMaxC= 1.00D-01 BMatC= 1.17D+00 BMatP= 1.17D+00
 IDIUse=3 WtCom= 4.34D-01 WtEn= 5.66D-01
 Coeff-Com:  0.100D+01
 Coeff-En:   0.100D+01
 Coeff:      0.100D+01
 Gap=     0.555 Goal=   None    Shift=    0.000
 GapD=    0.555 DampG=2.000 DampE=0.500 DampFc=1.0000 IDamp=-1.
 RMSDP=4.59D-03 MaxDP=1.16D-01              OVMax= 1.51D-01

 Cycle   2  Pass 0  IDiag  1:
 RMSU=  4.47D-03    CP:  9.48D-01
 E= -669.358672022628     Delta-E=       -0.617293858526 Rises=F Damp=F
 DIIS: error= 2.99D-02 at cycle   2 NSaved=   2.
 NSaved= 2 IEnMin= 2 EnMin= -669.358672022628     IErMin= 2 ErrMin= 2.99D-02
 ErrMax= 2.99D-02  0.00D+00 EMaxC= 1.00D-01 BMatC= 2.17D-01 BMatP= 1.17D+00
 IDIUse=3 WtCom= 7.01D-01 WtEn= 2.99D-01
 Coeff-Com:  0.246D+00 0.754D+00
 Coeff-En:   0.000D+00 0.100D+01
 Coeff:      0.173D+00 0.827D+00
 Gap=     0.579 Goal=   None    Shift=    0.000
 RMSDP=1.82D-03 MaxDP=8.05D-02 DE=-6.17D-01 OVMax= 1.23D-01

 Cycle   3  Pass 0  IDiag  1:
 RMSU=  1.44D-03    CP:  9.57D-01  7.55D-01
 E= -669.506653544960     Delta-E=       -0.147981522332 Rises=F Damp=F
 DIIS: error= 1.41D-02 at cycle   3 NSaved=   3.
 NSaved= 3 IEnMin= 3 EnMin= -669.506653544960     IErMin= 3 ErrMin= 1.41D-02
 ErrMax= 1.41D-02  0.00D+00 EMaxC= 1.00D-01 BMatC= 3.73D-02 BMatP= 2.17D-01
 IDIUse=3 WtCom= 8.59D-01 WtEn= 1.41D-01
 Coeff-Com: -0.950D-02 0.272D+00 0.737D+00
 Coeff-En:   0.000D+00 0.000D+00 0.100D+01
 Coeff:     -0.816D-02 0.234D+00 0.774D+00
 Gap=     0.426 Goal=   None    Shift=    0.000
 RMSDP=6.04D-04 MaxDP=3.22D-02 DE=-1.48D-01 OVMax= 5.10D-02

 Cycle   4  Pass 0  IDiag  1:
 RMSU=  4.00D-04    CP:  9.55D-01  8.34D-01  8.03D-01
 E= -669.532938191415     Delta-E=       -0.026284646455 Rises=F Damp=F
 DIIS: error= 4.78D-03 at cycle   4 NSaved=   4.
 NSaved= 4 IEnMin= 4 EnMin= -669.532938191415     IErMin= 4 ErrMin= 4.78D-03
 ErrMax= 4.78D-03  0.00D+00 EMaxC= 1.00D-01 BMatC= 2.99D-03 BMatP= 3.73D-02
 IDIUse=3 WtCom= 9.52D-01 WtEn= 4.78D-02
 Coeff-Com: -0.133D-01 0.446D-01 0.292D+00 0.677D+00
 Coeff-En:   0.000D+00 0.000D+00 0.000D+00 0.100D+01
 Coeff:     -0.126D-01 0.425D-01 0.278D+00 0.692D+00
 Gap=     0.412 Goal=   None    Shift=    0.000
 RMSDP=1.73D-04 MaxDP=8.27D-03 DE=-2.63D-02 OVMax= 1.46D-02

 Cycle   5  Pass 0  IDiag  1:
 RMSU=  9.78D-05    CP:  9.55D-01  8.36D-01  8.76D-01  7.59D-01
 E= -669.535346227316     Delta-E=       -0.002408035901 Rises=F Damp=F
 DIIS: error= 5.79D-04 at cycle   5 NSaved=   5.
 NSaved= 5 IEnMin= 5 EnMin= -669.535346227316     IErMin= 5 ErrMin= 5.79D-04
 ErrMax= 5.79D-04  0.00D+00 EMaxC= 1.00D-01 BMatC= 6.17D-05 BMatP= 2.99D-03
 IDIUse=3 WtCom= 9.94D-01 WtEn= 5.79D-03
 Coeff-Com:  0.205D-02-0.199D-01-0.769D-01-0.297D-01 0.112D+01
 Coeff-En:   0.000D+00 0.000D+00 0.000D+00 0.000D+00 0.100D+01
 Coeff:      0.204D-02-0.198D-01-0.765D-01-0.295D-01 0.112D+01
 Gap=     0.414 Goal=   None    Shift=    0.000
 RMSDP=5.35D-05 MaxDP=1.22D-03 DE=-2.41D-03 OVMax= 4.76D-03

 Cycle   6  Pass 0  IDiag  1:
 RMSU=  2.46D-05    CP:  9.55D-01  8.39D-01  8.89D-01  8.45D-01  1.25D+00
 E= -669.535458019275     Delta-E=       -0.000111791959 Rises=F Damp=F
 DIIS: error= 1.86D-04 at cycle   6 NSaved=   6.
 NSaved= 6 IEnMin= 6 EnMin= -669.535458019275     IErMin= 6 ErrMin= 1.86D-04
 ErrMax= 1.86D-04  0.00D+00 EMaxC= 1.00D-01 BMatC= 5.88D-06 BMatP= 6.17D-05
 IDIUse=3 WtCom= 9.98D-01 WtEn= 1.86D-03
 Coeff-Com:  0.126D-02-0.675D-02-0.341D-01-0.517D-01 0.142D+00 0.949D+00
 Coeff-En:   0.000D+00 0.000D+00 0.000D+00 0.000D+00 0.000D+00 0.100D+01
 Coeff:      0.126D-02-0.674D-02-0.340D-01-0.517D-01 0.142D+00 0.949D+00
 Gap=     0.414 Goal=   None    Shift=    0.000
 RMSDP=1.74D-05 MaxDP=5.90D-04 DE=-1.12D-04 OVMax= 1.69D-03

 Cycle   7  Pass 0  IDiag  1:
 RMSU=  8.81D-06    CP:  9.55D-01  8.39D-01  8.92D-01  8.57D-01  1.38D+00
                    CP:  1.18D+00
 E= -669.535472997383     Delta-E=       -0.000014978107 Rises=F Damp=F
 DIIS: error= 1.58D-04 at cycle   7 NSaved=   7.
 NSaved= 7 IEnMin= 7 EnMin= -669.535472997383     IErMin= 7 ErrMin= 1.58D-04
 ErrMax= 1.58D-04  0.00D+00 EMaxC= 1.00D-01 BMatC= 1.15D-06 BMatP= 5.88D-06
 IDIUse=3 WtCom= 9.98D-01 WtEn= 1.58D-03
 Coeff-Com: -0.252D-03 0.248D-02 0.952D-02 0.520D-02-0.153D+00 0.149D-01
 Coeff-Com:  0.112D+01
 Coeff-En:   0.000D+00 0.000D+00 0.000D+00 0.000D+00 0.000D+00 0.000D+00
 Coeff-En:   0.100D+01
 Coeff:     -0.251D-03 0.247D-02 0.951D-02 0.519D-02-0.152D+00 0.148D-01
 Coeff:      0.112D+01
 Gap=     0.414 Goal=   None    Shift=    0.000
 RMSDP=8.91D-06 MaxDP=3.38D-04 DE=-1.50D-05 OVMax= 1.36D-03

 Initial convergence to 1.0D-05 achieved.  Increase integral accuracy.
 Cycle   8  Pass 1  IDiag  1:
 E= -669.535476513289     Delta-E=       -0.000003515906 Rises=F Damp=F
 DIIS: error= 6.32D-05 at cycle   1 NSaved=   1.
 NSaved= 1 IEnMin= 1 EnMin= -669.535476513289     IErMin= 1 ErrMin= 6.32D-05
 ErrMax= 6.32D-05  0.00D+00 EMaxC= 1.00D-01 BMatC= 4.30D-07 BMatP= 4.30D-07
 IDIUse=1 WtCom= 1.00D+00 WtEn= 0.00D+00
 Coeff-Com:  0.100D+01
 Coeff:      0.100D+01
 Gap=     0.414 Goal=   None    Shift=    0.000
 RMSDP=8.91D-06 MaxDP=3.38D-04 DE=-3.52D-06 OVMax= 5.34D-04

 Cycle   9  Pass 1  IDiag  1:
 RMSU=  1.92D-05    CP:  1.00D+00
 E= -669.535477596545     Delta-E=       -0.000001083257 Rises=F Damp=F
 DIIS: error= 5.54D-05 at cycle   2 NSaved=   2.
 NSaved= 2 IEnMin= 2 EnMin= -669.535477596545     IErMin= 2 ErrMin= 5.54D-05
 ErrMax= 5.54D-05  0.00D+00 EMaxC= 1.00D-01 BMatC= 1.15D-07 BMatP= 4.30D-07
 IDIUse=1 WtCom= 1.00D+00 WtEn= 0.00D+00
 Coeff-Com: -0.122D-01 0.101D+01
 Coeff:     -0.122D-01 0.101D+01
 Gap=     0.414 Goal=   None    Shift=    0.000
 RMSDP=2.46D-06 MaxDP=7.30D-05 DE=-1.08D-06 OVMax= 3.92D-04

 Cycle  10  Pass 1  IDiag  1:
 RMSU=  2.17D-06    CP:  1.00D+00  1.06D+00
 E= -669.535478010652     Delta-E=       -0.000000414106 Rises=F Damp=F
 DIIS: error= 2.93D-05 at cycle   3 NSaved=   3.
 NSaved= 3 IEnMin= 3 EnMin= -669.535478010652     IErMin= 3 ErrMin= 2.93D-05
 ErrMax= 2.93D-05  0.00D+00 EMaxC= 1.00D-01 BMatC= 5.26D-08 BMatP= 1.15D-07
 IDIUse=1 WtCom= 1.00D+00 WtEn= 0.00D+00
 Coeff-Com: -0.273D+00 0.118D+00 0.115D+01
 Coeff:     -0.273D+00 0.118D+00 0.115D+01
 Gap=     0.414 Goal=   None    Shift=    0.000
 RMSDP=2.20D-06 MaxDP=6.43D-05 DE=-4.14D-07 OVMax= 3.36D-04

 Cycle  11  Pass 1  IDiag  1:
 RMSU=  1.37D-06    CP:  1.00D+00  1.09D+00  1.74D+00
 E= -669.535478261255     Delta-E=       -0.000000250604 Rises=F Damp=F
 DIIS: error= 1.66D-05 at cycle   4 NSaved=   4.
 NSaved= 4 IEnMin= 4 EnMin= -669.535478261255     IErMin= 4 ErrMin= 1.66D-05
 ErrMax= 1.66D-05  0.00D+00 EMaxC= 1.00D-01 BMatC= 1.05D-08 BMatP= 5.26D-08
 IDIUse=1 WtCom= 1.00D+00 WtEn= 0.00D+00
 Coeff-Com:  0.190D-01-0.401D+00-0.909D-01 0.147D+01
 Coeff:      0.190D-01-0.401D+00-0.909D-01 0.147D+01
 Gap=     0.414 Goal=   None    Shift=    0.000
 RMSDP=1.82D-06 MaxDP=5.60D-05 DE=-2.51D-07 OVMax= 2.84D-04

 Cycle  12  Pass 1  IDiag  1:
 RMSU=  2.41D-07    CP:  1.00D+00  1.10D+00  2.50D+00  1.52D+00
 E= -669.535478331230     Delta-E=       -0.000000069975 Rises=F Damp=F
 DIIS: error= 2.19D-06 at cycle   5 NSaved=   5.
 NSaved= 5 IEnMin= 5 EnMin= -669.535478331230     IErMin= 5 ErrMin= 2.19D-06
 ErrMax= 2.19D-06  0.00D+00 EMaxC= 1.00D-01 BMatC= 6.83D-10 BMatP= 1.05D-08
 IDIUse=1 WtCom= 1.00D+00 WtEn= 0.00D+00
 Coeff-Com:  0.181D-01-0.163D+00-0.732D-01 0.584D+00 0.634D+00
 Coeff:      0.181D-01-0.163D+00-0.732D-01 0.584D+00 0.634D+00
 Gap=     0.414 Goal=   None    Shift=    0.000
 RMSDP=1.09D-07 MaxDP=4.42D-06 DE=-7.00D-08 OVMax= 1.21D-05

 Cycle  13  Pass 1  IDiag  1:
 RMSU=  7.90D-08    CP:  1.00D+00  1.10D+00  2.52D+00  1.56D+00  9.82D-01
 E= -669.535478331987     Delta-E=       -0.000000000757 Rises=F Damp=F
 DIIS: error= 8.26D-07 at cycle   6 NSaved=   6.
 NSaved= 6 IEnMin= 6 EnMin= -669.535478331987     IErMin= 6 ErrMin= 8.26D-07
 ErrMax= 8.26D-07  0.00D+00 EMaxC= 1.00D-01 BMatC= 4.25D-11 BMatP= 6.83D-10
 IDIUse=1 WtCom= 1.00D+00 WtEn= 0.00D+00
 Coeff-Com: -0.319D-02 0.609D-01 0.153D-01-0.228D+00-0.661D-01 0.122D+01
 Coeff:     -0.319D-02 0.609D-01 0.153D-01-0.228D+00-0.661D-01 0.122D+01
 Gap=     0.414 Goal=   None    Shift=    0.000
 RMSDP=5.71D-08 MaxDP=1.59D-06 DE=-7.57D-10 OVMax= 6.39D-06

 Cycle  14  Pass 1  IDiag  1:
 RMSU=  3.02D-08    CP:  1.00D+00  1.10D+00  2.53D+00  1.57D+00  1.12D+00
                    CP:  1.26D+00
 E= -669.535478332089     Delta-E=       -0.000000000102 Rises=F Damp=F
 DIIS: error= 1.89D-07 at cycle   7 NSaved=   7.
 NSaved= 7 IEnMin= 7 EnMin= -669.535478332089     IErMin= 7 ErrMin= 1.89D-07
 ErrMax= 1.89D-07  0.00D+00 EMaxC= 1.00D-01 BMatC= 8.66D-12 BMatP= 4.25D-11
 IDIUse=1 WtCom= 1.00D+00 WtEn= 0.00D+00
 Coeff-Com: -0.284D-02 0.316D-01 0.127D-01-0.117D+00-0.117D+00 0.290D+00
 Coeff-Com:  0.903D+00
 Coeff:     -0.284D-02 0.316D-01 0.127D-01-0.117D+00-0.117D+00 0.290D+00
 Coeff:      0.903D+00
 Gap=     0.414 Goal=   None    Shift=    0.000
 RMSDP=1.80D-08 MaxDP=7.61D-07 DE=-1.02D-10 OVMax= 1.70D-06

 Cycle  15  Pass 1  IDiag  1:
 RMSU=  1.04D-08    CP:  1.00D+00  1.10D+00  2.54D+00  1.57D+00  1.14D+00
                    CP:  1.39D+00  1.17D+00
 E= -669.535478332108     Delta-E=       -0.000000000019 Rises=F Damp=F
 DIIS: error= 8.26D-08 at cycle   8 NSaved=   8.
 NSaved= 8 IEnMin= 8 EnMin= -669.535478332108     IErMin= 8 ErrMin= 8.26D-08
 ErrMax= 8.26D-08  0.00D+00 EMaxC= 1.00D-01 BMatC= 1.11D-12 BMatP= 8.66D-12
 IDIUse=1 WtCom= 1.00D+00 WtEn= 0.00D+00
 Coeff-Com:  0.138D-03-0.511D-02-0.838D-04 0.183D-01-0.152D-01-0.109D+00
 Coeff-Com:  0.770D-01 0.103D+01
 Coeff:      0.138D-03-0.511D-02-0.838D-04 0.183D-01-0.152D-01-0.109D+00
 Coeff:      0.770D-01 0.103D+01
 Gap=     0.414 Goal=   None    Shift=    0.000
 RMSDP=6.85D-09 MaxDP=3.39D-07 DE=-1.91D-11 OVMax= 6.50D-07

 SCF Done:  E(RHF) =  -669.535478332     A.U. after   15 cycles
            NFock= 15  Conv=0.69D-08     -V/T= 2.0024
 KE= 6.679623739338D+02 PE=-3.366373347746D+03 EE= 1.127027381651D+03
 Leave Link  502 at Thu May  6 14:09:21 2021, MaxMem=   524288000 cpu:              96.1 elap:              49.4
 (Enter /opt/gaussian/g16_legacy/l801.exe)
 ExpMin= 1.61D-01 ExpMax= 5.48D+03 ExpMxC= 8.25D+02 IAcc=3 IRadAn=         5 AccDes= 0.00D+00
 HarFok:  IExCor=  205 AccDes= 0.00D+00 IRadAn=         5 IDoV=-2 UseB2=F ITyADJ=14
 ICtDFT= 12500011 ScaDFX=  1.000000  1.000000  1.000000  1.000000
 Largest valence mixing into a core orbital is  1.96D-04
 Largest core mixing into a valence orbital is  4.00D-05
 Range of M.O.s used for correlation:    16   263
 NBasis=   263 NAE=    57 NBE=    57 NFC=    15 NFV=     0
 NROrb=    248 NOA=    42 NOB=    42 NVA=   206 NVB=   206
 Leave Link  801 at Thu May  6 14:09:22 2021, MaxMem=   524288000 cpu:               1.8 elap:               0.9
 (Enter /opt/gaussian/g16_legacy/l906.exe)
 FulOut=F Deriv=F AODrv=F NAtomX=    34
   MMem=         113  MDisk=          42 MDiskD=          42
  W3Min=     2275476 MinDsk=     2420380 NBas6D=         263
 NBas2D=       35121    NTT=       34716    LW2=     2000000
    MDV=   523940890 MDiskM=       27563 NBas2p=       23922
 Fully direct method using O(OVN) memory.
 IMap=   1   2   3   4   5   6   7   8   9  10  11  12  13  14  15  16  17  18  19  20
 IMap=  21  22  23  24  25  26  27  28  29  30  31  32  33  34  35  36  37  38  39  40
 IMap=  41  42
 JobTyp=1 Pass  1:  I=   1 to  42 NPSUse=  2 ParTrn=T ParDer=T DoDerP=F.
 Spin components of T(2) and E(2):
     alpha-alpha T2 =       0.9497981031D-01 E2=     -0.2720179258D+00
     alpha-beta  T2 =       0.5261152560D+00 E2=     -0.1547875170D+01
     beta-beta   T2 =       0.9497981031D-01 E2=     -0.2720179258D+00
 The integrals were generated   1 times.
 ANorm=    0.1309990411D+01
 E2 =    -0.2091911021D+01 EUMP2 =    -0.67162738935343D+03
 Leave Link  906 at Thu May  6 14:10:18 2021, MaxMem=   524288000 cpu:             111.8 elap:              56.4
 (Enter /opt/gaussian/g16_legacy/l601.exe)
 Copying SCF densities to generalized density rwf, IOpCl= 0 IROHF=0.

 **********************************************************************

            Population analysis using the SCF density.

 **********************************************************************

 Orbital symmetries:
       Occupied  (A) (A) (A) (A) (A) (A) (A) (A) (A) (A) (A) (A)
                 (A) (A) (A) (A) (A) (A) (A) (A) (A) (A) (A) (A)
                 (A) (A) (A) (A) (A) (A) (A) (A) (A) (A) (A) (A)
                 (A) (A) (A) (A) (A) (A) (A) (A) (A) (A) (A) (A)
                 (A) (A) (A) (A) (A) (A) (A) (A) (A)
       Virtual   (A) (A) (A) (A) (A) (A) (A) (A) (A) (A) (A) (A)
                 (A) (A) (A) (A) (A) (A) (A) (A) (A) (A) (A) (A)
                 (A) (A) (A) (A) (A) (A) (A) (A) (A) (A) (A) (A)
                 (A) (A) (A) (A) (A) (A) (A) (A) (A) (A) (A) (A)
                 (A) (A) (A) (A) (A) (A) (A) (A) (A) (A) (A) (A)
                 (A) (A) (A) (A) (A) (A) (A) (A) (A) (A) (A) (A)
                 (A) (A) (A) (A) (A) (A) (A) (A) (A) (A) (A) (A)
                 (A) (A) (A) (A) (A) (A) (A) (A) (A) (A) (A) (A)
                 (A) (A) (A) (A) (A) (A) (A) (A) (A) (A) (A) (A)
                 (A) (A) (A) (A) (A) (A) (A) (A) (A) (A) (A) (A)
                 (A) (A) (A) (A) (A) (A) (A) (A) (A) (A) (A) (A)
                 (A) (A) (A) (A) (A) (A) (A) (A) (A) (A) (A) (A)
                 (A) (A) (A) (A) (A) (A) (A) (A) (A) (A) (A) (A)
                 (A) (A) (A) (A) (A) (A) (A) (A) (A) (A) (A) (A)
                 (A) (A) (A) (A) (A) (A) (A) (A) (A) (A) (A) (A)
                 (A) (A) (A) (A) (A) (A) (A) (A) (A) (A) (A) (A)
                 (A) (A) (A) (A) (A) (A) (A) (A) (A) (A) (A) (A)
                 (A) (A)
 The electronic state is 1-A.
 Alpha  occ. eigenvalues --  -20.60751 -20.60746 -15.85804 -11.31169 -11.27743
 Alpha  occ. eigenvalues --  -11.27739 -11.27463 -11.26746 -11.26730 -11.22701
 Alpha  occ. eigenvalues --  -11.22494 -11.22406 -11.22353 -11.21901 -11.21748
 Alpha  occ. eigenvalues --   -1.59826  -1.39380  -1.19341  -1.09424  -1.08732
 Alpha  occ. eigenvalues --   -1.04747  -1.04419  -0.96847  -0.95568  -0.87858
 Alpha  occ. eigenvalues --   -0.86149  -0.82403  -0.80498  -0.79263  -0.77452
 Alpha  occ. eigenvalues --   -0.72023  -0.71149  -0.70442  -0.66140  -0.64991
 Alpha  occ. eigenvalues --   -0.64706  -0.62098  -0.61817  -0.60220  -0.58466
 Alpha  occ. eigenvalues --   -0.56141  -0.55229  -0.53510  -0.53278  -0.53068
 Alpha  occ. eigenvalues --   -0.52838  -0.50785  -0.48813  -0.48779  -0.48771
 Alpha  occ. eigenvalues --   -0.47544  -0.46758  -0.46699  -0.44786  -0.44699
 Alpha  occ. eigenvalues --   -0.37313  -0.36350
 Alpha virt. eigenvalues --    0.05080   0.11225   0.16555   0.18486   0.22646
 Alpha virt. eigenvalues --    0.23423   0.24820   0.25927   0.26981   0.27764
 Alpha virt. eigenvalues --    0.29429   0.30751   0.31042   0.31246   0.32150
 Alpha virt. eigenvalues --    0.32473   0.33486   0.33533   0.34165   0.34420
 Alpha virt. eigenvalues --    0.35318   0.35646   0.36781   0.38203   0.39401
 Alpha virt. eigenvalues --    0.41119   0.44299   0.44649   0.44908   0.45150
 Alpha virt. eigenvalues --    0.46320   0.47143   0.49536   0.52798   0.57942
 Alpha virt. eigenvalues --    0.67201   0.68270   0.68600   0.69040   0.70000
 Alpha virt. eigenvalues --    0.71720   0.71951   0.74270   0.75602   0.76964
 Alpha virt. eigenvalues --    0.77959   0.78954   0.79250   0.79760   0.79870
 Alpha virt. eigenvalues --    0.80534   0.80860   0.82853   0.83150   0.85870
 Alpha virt. eigenvalues --    0.85903   0.87118   0.88012   0.88127   0.93717
 Alpha virt. eigenvalues --    0.94975   0.95310   0.96629   0.97658   1.00528
 Alpha virt. eigenvalues --    1.00603   1.01906   1.04370   1.04709   1.06545
 Alpha virt. eigenvalues --    1.07039   1.08483   1.09035   1.10087   1.11244
 Alpha virt. eigenvalues --    1.12621   1.15233   1.15997   1.16451   1.16697
 Alpha virt. eigenvalues --    1.16787   1.17791   1.18166   1.19320   1.19408
 Alpha virt. eigenvalues --    1.20304   1.20496   1.20981   1.21901   1.22769
 Alpha virt. eigenvalues --    1.22932   1.23538   1.24419   1.25845   1.26920
 Alpha virt. eigenvalues --    1.27730   1.28356   1.30475   1.31407   1.34453
 Alpha virt. eigenvalues --    1.35758   1.40395   1.43031   1.46688   1.47109
 Alpha virt. eigenvalues --    1.52579   1.53484   1.54805   1.60524   1.65221
 Alpha virt. eigenvalues --    1.65442   1.66378   1.66723   1.67182   1.69243
 Alpha virt. eigenvalues --    1.70553   1.71862   1.72613   1.73318   1.73584
 Alpha virt. eigenvalues --    1.75560   1.78540   1.80279   1.92009   1.96984
 Alpha virt. eigenvalues --    1.99331   1.99852   2.04139   2.04606   2.05688
 Alpha virt. eigenvalues --    2.10080   2.12309   2.12542   2.13244   2.13781
 Alpha virt. eigenvalues --    2.17079   2.21472   2.21708   2.21884   2.24724
 Alpha virt. eigenvalues --    2.24854   2.25062   2.26886   2.27210   2.31863
 Alpha virt. eigenvalues --    2.33097   2.33538   2.35076   2.36238   2.37761
 Alpha virt. eigenvalues --    2.38692   2.42140   2.42988   2.43335   2.44624
 Alpha virt. eigenvalues --    2.45732   2.46882   2.55831   2.56047   2.58123
 Alpha virt. eigenvalues --    2.58613   2.58860   2.59562   2.66018   2.66847
 Alpha virt. eigenvalues --    2.66874   2.70395   2.76283   2.76610   2.79092
 Alpha virt. eigenvalues --    2.81382   2.83514   2.90460   2.91970   2.92213
 Alpha virt. eigenvalues --    2.92523   2.94232   2.97689   2.99932   3.04736
 Alpha virt. eigenvalues --    3.05176   3.07163   3.10785   3.12911   3.17650
 Alpha virt. eigenvalues --    3.23603   3.24559   3.27709   3.43118   3.52949
 Alpha virt. eigenvalues --    3.77009   4.13010   4.28747   4.37864   4.48200
 Alpha virt. eigenvalues --    4.50843   4.52962   4.55565   4.61605   4.71590
 Alpha virt. eigenvalues --    4.72400   4.76711   4.79297   4.87091   5.00067
 Alpha virt. eigenvalues --    5.08985
          Condensed to atoms (all electrons):
               1          2          3          4          5          6
     1  C    4.880183   0.542701  -0.044883  -0.028805  -0.045393   0.541052
     2  C    0.542701   4.944019   0.519574  -0.039976  -0.030242  -0.043269
     3  C   -0.044883   0.519574   4.922835   0.547919  -0.053053  -0.030438
     4  C   -0.028805  -0.039976   0.547919   4.821560   0.548575  -0.040199
     5  C   -0.045393  -0.030242  -0.053053   0.548575   4.919345   0.522477
     6  C    0.541052  -0.043269  -0.030438  -0.040199   0.522477   4.933909
     7  H    0.380641  -0.027912   0.002201   0.000206   0.002155  -0.027907
     8  H   -0.027528   0.380077  -0.027045   0.001500   0.000200   0.002319
     9  H    0.001905  -0.024237   0.368408  -0.019400   0.002551  -0.000056
    10  H    0.001928  -0.000064   0.002573  -0.019655   0.368576  -0.024104
    11  H   -0.027732   0.002333   0.000204   0.001559  -0.027358   0.382634
    12  N    0.000011   0.001492  -0.044497   0.244081  -0.044652   0.001505
    13  O   -0.000003  -0.000029   0.003740  -0.088031   0.004060   0.000775
    14  O   -0.000003   0.000775   0.004133  -0.088136   0.003714  -0.000028
    15  C    0.000004  -0.000538   0.000006  -0.000000   0.000000   0.000000
    16  C    0.000000   0.000002  -0.000000   0.000000  -0.000000  -0.000000
    17  C    0.000000  -0.000001  -0.000000  -0.000000   0.000000  -0.000000
    18  H   -0.000005   0.000012   0.000000  -0.000000   0.000000   0.000000
    19  H    0.000130   0.000089   0.000020  -0.000002  -0.000000   0.000002
    20  H    0.000000  -0.000000   0.000000  -0.000000   0.000000   0.000000
    21  H   -0.000000  -0.000000  -0.000000   0.000000  -0.000000   0.000000
    22  H    0.000000   0.000012   0.000000  -0.000000  -0.000000  -0.000000
    23  H   -0.000000  -0.000000   0.000000   0.000000   0.000000   0.000000
    24  H   -0.000000  -0.000000   0.000000   0.000000  -0.000000  -0.000000
    25  C    0.000004   0.000002  -0.000000   0.000000  -0.000000  -0.000000
    26  C   -0.000201  -0.000108   0.000002  -0.000000   0.000000   0.000002
    27  C    0.000004   0.000000  -0.000000   0.000000  -0.000000  -0.000000
    28  H   -0.000000   0.000000   0.000000  -0.000000   0.000000   0.000000
    29  H   -0.000001   0.000003  -0.000000  -0.000000   0.000000  -0.000000
    30  H   -0.000014   0.000001   0.000000  -0.000000   0.000000   0.000000
    31  H    0.000199   0.000342   0.000013  -0.000001  -0.000000   0.000012
    32  H   -0.000000   0.000000   0.000000  -0.000000   0.000000  -0.000000
    33  H   -0.000000  -0.000000   0.000000  -0.000000   0.000000   0.000000
    34  H    0.000000  -0.000000  -0.000000   0.000000  -0.000000  -0.000000
               7          8          9         10         11         12
     1  C    0.380641  -0.027528   0.001905   0.001928  -0.027732   0.000011
     2  C   -0.027912   0.380077  -0.024237  -0.000064   0.002333   0.001492
     3  C    0.002201  -0.027045   0.368408   0.002573   0.000204  -0.044497
     4  C    0.000206   0.001500  -0.019400  -0.019655   0.001559   0.244081
     5  C    0.002155   0.000200   0.002551   0.368576  -0.027358  -0.044652
     6  C   -0.027907   0.002319  -0.000056  -0.024104   0.382634   0.001505
     7  H    0.443510  -0.001399  -0.000070  -0.000070  -0.001147   0.000002
     8  H   -0.001399   0.439847  -0.000889   0.000007  -0.000093  -0.000049
     9  H   -0.000070  -0.000889   0.392276  -0.000076   0.000007  -0.005370
    10  H   -0.000070   0.000007  -0.000076   0.392694  -0.001112  -0.005359
    11  H   -0.001147  -0.000093   0.000007  -0.001112   0.447244  -0.000049
    12  N    0.000002  -0.000049  -0.005370  -0.005359  -0.000049   5.734933
    13  O    0.000000   0.000000   0.000050   0.009037  -0.000001   0.314976
    14  O    0.000000  -0.000002   0.009134   0.000048   0.000000   0.315010
    15  C    0.000060   0.000042   0.000000  -0.000000   0.000000   0.000000
    16  C   -0.000001   0.000022  -0.000000  -0.000000   0.000000  -0.000000
    17  C    0.000000  -0.000006   0.000000  -0.000000   0.000000   0.000000
    18  H    0.000011  -0.000004  -0.000000   0.000000  -0.000000  -0.000000
    19  H    0.000173   0.001403   0.000001   0.000000   0.000000   0.000000
    20  H    0.000000  -0.000000   0.000000   0.000000  -0.000000   0.000000
    21  H    0.000000   0.000012  -0.000000   0.000000  -0.000000  -0.000000
    22  H    0.000000   0.000005   0.000000   0.000000  -0.000000   0.000000
    23  H    0.000000   0.000000  -0.000000  -0.000000  -0.000000  -0.000000
    24  H   -0.000000   0.000000  -0.000000  -0.000000   0.000000  -0.000000
    25  C   -0.000042   0.000124  -0.000000  -0.000000   0.000000  -0.000000
    26  C    0.000266  -0.000009   0.000000   0.000000  -0.000000   0.000000
    27  C   -0.000012  -0.000002  -0.000000  -0.000000   0.000000   0.000000
    28  H    0.000001  -0.000002   0.000000   0.000000  -0.000000   0.000000
    29  H    0.000002   0.000045  -0.000000   0.000000  -0.000000  -0.000000
    30  H    0.000068  -0.000004   0.000000   0.000000  -0.000000  -0.000000
    31  H    0.000789   0.000247   0.000000   0.000000  -0.000000  -0.000000
    32  H    0.000001  -0.000001   0.000000   0.000000  -0.000000  -0.000000
    33  H    0.000000   0.000000   0.000000   0.000000  -0.000000   0.000000
    34  H   -0.000001  -0.000000  -0.000000  -0.000000   0.000000   0.000000
              13         14         15         16         17         18
     1  C   -0.000003  -0.000003   0.000004   0.000000   0.000000  -0.000005
     2  C   -0.000029   0.000775  -0.000538   0.000002  -0.000001   0.000012
     3  C    0.003740   0.004133   0.000006  -0.000000  -0.000000   0.000000
     4  C   -0.088031  -0.088136  -0.000000   0.000000  -0.000000  -0.000000
     5  C    0.004060   0.003714   0.000000  -0.000000   0.000000   0.000000
     6  C    0.000775  -0.000028   0.000000  -0.000000  -0.000000   0.000000
     7  H    0.000000   0.000000   0.000060  -0.000001   0.000000   0.000011
     8  H    0.000000  -0.000002   0.000042   0.000022  -0.000006  -0.000004
     9  H    0.000050   0.009134   0.000000  -0.000000   0.000000  -0.000000
    10  H    0.009037   0.000048  -0.000000  -0.000000  -0.000000   0.000000
    11  H   -0.000001   0.000000   0.000000   0.000000   0.000000  -0.000000
    12  N    0.314976   0.315010   0.000000  -0.000000   0.000000  -0.000000
    13  O    8.303498  -0.087629  -0.000000   0.000000  -0.000000   0.000000
    14  O   -0.087629   8.303483  -0.000000   0.000000  -0.000000   0.000000
    15  C   -0.000000  -0.000000   5.094649   0.352036  -0.057452   0.396256
    16  C    0.000000   0.000000   0.352036   5.060705   0.340000  -0.041055
    17  C   -0.000000  -0.000000  -0.057452   0.340000   5.097494  -0.002818
    18  H    0.000000   0.000000   0.396256  -0.041055  -0.002818   0.563059
    19  H    0.000000   0.000000   0.392142  -0.042679  -0.002779  -0.032052
    20  H    0.000000  -0.000000  -0.043548   0.399888  -0.039463  -0.002933
    21  H    0.000000  -0.000000  -0.043916   0.399376  -0.039847   0.004532
    22  H    0.000000  -0.000000  -0.003972  -0.039096   0.391198   0.000167
    23  H   -0.000000  -0.000000  -0.003875  -0.038932   0.391426   0.002625
    24  H   -0.000000   0.000000   0.004396  -0.035612   0.394651  -0.000059
    25  C    0.000000   0.000000   0.354715  -0.051866   0.004068  -0.041300
    26  C   -0.000000  -0.000000  -0.052044   0.003962  -0.000086  -0.003252
    27  C    0.000000   0.000000   0.004043  -0.000084   0.000001  -0.000053
    28  H    0.000000  -0.000000  -0.041004  -0.003182  -0.000050  -0.002777
    29  H    0.000000  -0.000000  -0.041861  -0.003151  -0.000053   0.004443
    30  H    0.000000  -0.000000  -0.003212  -0.000067  -0.000000   0.002447
    31  H    0.000000   0.000000  -0.003117  -0.000061  -0.000000   0.000240
    32  H    0.000000  -0.000000  -0.000067  -0.000001  -0.000000  -0.000001
    33  H   -0.000000  -0.000000  -0.000066  -0.000001  -0.000000   0.000013
    34  H   -0.000000  -0.000000  -0.000088   0.000001  -0.000000   0.000001
              19         20         21         22         23         24
     1  C    0.000130   0.000000  -0.000000   0.000000  -0.000000  -0.000000
     2  C    0.000089  -0.000000  -0.000000   0.000012  -0.000000  -0.000000
     3  C    0.000020   0.000000  -0.000000   0.000000   0.000000   0.000000
     4  C   -0.000002  -0.000000   0.000000  -0.000000   0.000000   0.000000
     5  C   -0.000000   0.000000  -0.000000  -0.000000   0.000000  -0.000000
     6  C    0.000002   0.000000   0.000000  -0.000000   0.000000  -0.000000
     7  H    0.000173   0.000000   0.000000   0.000000   0.000000  -0.000000
     8  H    0.001403  -0.000000   0.000012   0.000005   0.000000   0.000000
     9  H    0.000001   0.000000  -0.000000   0.000000  -0.000000  -0.000000
    10  H    0.000000   0.000000   0.000000   0.000000  -0.000000  -0.000000
    11  H    0.000000  -0.000000  -0.000000  -0.000000  -0.000000   0.000000
    12  N    0.000000   0.000000  -0.000000   0.000000  -0.000000  -0.000000
    13  O    0.000000   0.000000   0.000000   0.000000  -0.000000  -0.000000
    14  O    0.000000  -0.000000  -0.000000  -0.000000  -0.000000   0.000000
    15  C    0.392142  -0.043548  -0.043916  -0.003972  -0.003875   0.004396
    16  C   -0.042679   0.399888   0.399376  -0.039096  -0.038932  -0.035612
    17  C   -0.002779  -0.039463  -0.039847   0.391198   0.391426   0.394651
    18  H   -0.032052  -0.002933   0.004532   0.000167   0.002625  -0.000059
    19  H    0.581379   0.004645  -0.003084   0.002664   0.000167  -0.000062
    20  H    0.004645   0.559005  -0.031178   0.004183  -0.002878  -0.002489
    21  H   -0.003084  -0.031178   0.563027  -0.002869   0.004205  -0.002505
    22  H    0.002664   0.004183  -0.002869   0.549496  -0.029166  -0.027186
    23  H    0.000167  -0.002878   0.004205  -0.029166   0.547109  -0.027104
    24  H   -0.000062  -0.002489  -0.002505  -0.027186  -0.027104   0.532073
    25  C   -0.044053  -0.003263  -0.003166  -0.000069  -0.000070  -0.000086
    26  C   -0.003177  -0.000060  -0.000063  -0.000000  -0.000000   0.000001
    27  C   -0.000051  -0.000001  -0.000000  -0.000000  -0.000000  -0.000000
    28  H    0.004556   0.002343   0.000232  -0.000002   0.000013   0.000001
    29  H   -0.002961   0.000234   0.002398   0.000013  -0.000001   0.000001
    30  H    0.000278   0.000017  -0.000003   0.000000  -0.000002   0.000000
    31  H    0.001754  -0.000004   0.000017  -0.000002   0.000000   0.000000
    32  H    0.000015   0.000000  -0.000002   0.000000  -0.000000  -0.000000
    33  H   -0.000003  -0.000002   0.000000  -0.000000   0.000000  -0.000000
    34  H    0.000001   0.000000   0.000000  -0.000000  -0.000000   0.000000
              25         26         27         28         29         30
     1  C    0.000004  -0.000201   0.000004  -0.000000  -0.000001  -0.000014
     2  C    0.000002  -0.000108   0.000000   0.000000   0.000003   0.000001
     3  C   -0.000000   0.000002  -0.000000   0.000000  -0.000000   0.000000
     4  C    0.000000  -0.000000   0.000000  -0.000000  -0.000000  -0.000000
     5  C   -0.000000   0.000000  -0.000000   0.000000   0.000000   0.000000
     6  C   -0.000000   0.000002  -0.000000   0.000000  -0.000000   0.000000
     7  H   -0.000042   0.000266  -0.000012   0.000001   0.000002   0.000068
     8  H    0.000124  -0.000009  -0.000002  -0.000002   0.000045  -0.000004
     9  H   -0.000000   0.000000  -0.000000   0.000000  -0.000000   0.000000
    10  H   -0.000000   0.000000  -0.000000   0.000000   0.000000   0.000000
    11  H    0.000000  -0.000000   0.000000  -0.000000  -0.000000  -0.000000
    12  N   -0.000000   0.000000   0.000000   0.000000  -0.000000  -0.000000
    13  O    0.000000  -0.000000   0.000000   0.000000   0.000000   0.000000
    14  O    0.000000  -0.000000   0.000000  -0.000000  -0.000000  -0.000000
    15  C    0.354715  -0.052044   0.004043  -0.041004  -0.041861  -0.003212
    16  C   -0.051866   0.003962  -0.000084  -0.003182  -0.003151  -0.000067
    17  C    0.004068  -0.000086   0.000001  -0.000050  -0.000053  -0.000000
    18  H   -0.041300  -0.003252  -0.000053  -0.002777   0.004443   0.002447
    19  H   -0.044053  -0.003177  -0.000051   0.004556  -0.002961   0.000278
    20  H   -0.003263  -0.000060  -0.000001   0.002343   0.000234   0.000017
    21  H   -0.003166  -0.000063  -0.000000   0.000232   0.002398  -0.000003
    22  H   -0.000069  -0.000000  -0.000000  -0.000002   0.000013   0.000000
    23  H   -0.000070  -0.000000  -0.000000   0.000013  -0.000001  -0.000002
    24  H   -0.000086   0.000001  -0.000000   0.000001   0.000001   0.000000
    25  C    5.088163   0.350866  -0.057247   0.396696   0.396459  -0.043380
    26  C    0.350866   5.068087   0.340566  -0.041392  -0.042101   0.399146
    27  C   -0.057247   0.340566   5.095266  -0.002757  -0.002767  -0.039461
    28  H    0.396696  -0.041392  -0.002757   0.559316  -0.030805  -0.003004
    29  H    0.396459  -0.042101  -0.002767  -0.030805   0.565002   0.004567
    30  H   -0.043380   0.399146  -0.039461  -0.003004   0.004567   0.563679
    31  H   -0.044381   0.396521  -0.039623   0.004554  -0.003068  -0.032868
    32  H   -0.003780  -0.038902   0.391712   0.000153   0.002592   0.004190
    33  H   -0.003787  -0.038907   0.392063   0.002563   0.000154  -0.002893
    34  H    0.004384  -0.035898   0.394143  -0.000056  -0.000057  -0.002487
              31         32         33         34
     1  C    0.000199  -0.000000  -0.000000   0.000000
     2  C    0.000342   0.000000  -0.000000  -0.000000
     3  C    0.000013   0.000000   0.000000  -0.000000
     4  C   -0.000001  -0.000000  -0.000000   0.000000
     5  C   -0.000000   0.000000   0.000000  -0.000000
     6  C    0.000012  -0.000000   0.000000  -0.000000
     7  H    0.000789   0.000001   0.000000  -0.000001
     8  H    0.000247  -0.000001   0.000000  -0.000000
     9  H    0.000000   0.000000   0.000000  -0.000000
    10  H    0.000000   0.000000   0.000000  -0.000000
    11  H   -0.000000  -0.000000  -0.000000   0.000000
    12  N   -0.000000  -0.000000   0.000000   0.000000
    13  O    0.000000   0.000000  -0.000000  -0.000000
    14  O    0.000000  -0.000000  -0.000000  -0.000000
    15  C   -0.003117  -0.000067  -0.000066  -0.000088
    16  C   -0.000061  -0.000001  -0.000001   0.000001
    17  C   -0.000000  -0.000000  -0.000000  -0.000000
    18  H    0.000240  -0.000001   0.000013   0.000001
    19  H    0.001754   0.000015  -0.000003   0.000001
    20  H   -0.000004   0.000000  -0.000002   0.000000
    21  H    0.000017  -0.000002   0.000000   0.000000
    22  H   -0.000002   0.000000  -0.000000  -0.000000
    23  H    0.000000  -0.000000   0.000000  -0.000000
    24  H    0.000000  -0.000000  -0.000000   0.000000
    25  C   -0.044381  -0.003780  -0.003787   0.004384
    26  C    0.396521  -0.038902  -0.038907  -0.035898
    27  C   -0.039623   0.391712   0.392063   0.394143
    28  H    0.004554   0.000153   0.002563  -0.000056
    29  H   -0.003068   0.002592   0.000154  -0.000057
    30  H   -0.032868   0.004190  -0.002893  -0.002487
    31  H    0.575476  -0.002965   0.004213  -0.002504
    32  H   -0.002965   0.545172  -0.028728  -0.027215
    33  H    0.004213  -0.028728   0.544023  -0.027140
    34  H   -0.002504  -0.027215  -0.027140   0.535106
 Mulliken charges:
               1
     1  C   -0.174194
     2  C   -0.225055
     3  C   -0.171710
     4  C    0.158806
     5  C   -0.170957
     6  C   -0.218685
     7  H    0.228472
     8  H    0.231183
     9  H    0.275766
    10  H    0.275577
    11  H    0.223510
    12  N    0.487966
    13  O   -0.460442
    14  O   -0.460499
    15  C   -0.303589
    16  C   -0.300202
    17  C   -0.476281
    18  H    0.152503
    19  H    0.141484
    20  H    0.155504
    21  H    0.152834
    22  H    0.154622
    23  H    0.156482
    24  H    0.163982
    25  C   -0.298991
    26  C   -0.303216
    27  C   -0.475740
    28  H    0.154601
    29  H    0.150915
    30  H    0.153002
    31  H    0.144218
    32  H    0.157828
    33  H    0.158495
    34  H    0.161810
 Sum of Mulliken charges =  -0.00000
 Mulliken charges with hydrogens summed into heavy atoms:
               1
     1  C    0.054278
     2  C    0.006128
     3  C    0.104056
     4  C    0.158806
     5  C    0.104620
     6  C    0.004825
    12  N    0.487966
    13  O   -0.460442
    14  O   -0.460499
    15  C   -0.009602
    16  C    0.008136
    17  C   -0.001194
    25  C    0.006525
    26  C   -0.005996
    27  C    0.002394
 Electronic spatial extent (au):  <R**2>=           6814.7669
 Charge=             -0.0000 electrons
 Dipole moment (field-independent basis, Debye):
    X=             -4.6116    Y=             -1.8803    Z=              2.0998  Tot=              5.4048
 Quadrupole moment (field-independent basis, Debye-Ang):
   XX=           -119.5433   YY=            -94.2235   ZZ=            -93.0901
   XY=             -7.8340   XZ=              8.2771   YZ=             -2.6013
 Traceless Quadrupole moment (field-independent basis, Debye-Ang):
   XX=            -17.2576   YY=              8.0621   ZZ=              9.1955
   XY=             -7.8340   XZ=              8.2771   YZ=             -2.6013
 Octapole moment (field-independent basis, Debye-Ang**2):
  XXX=           -146.5874  YYY=              3.3957  ZZZ=              0.4517  XYY=             11.6147
  XXY=            -33.0171  XXZ=             42.7510  XZZ=              9.6511  YZZ=             -9.6840
  YYZ=              7.0401  XYZ=              4.9570
 Hexadecapole moment (field-independent basis, Debye-Ang**3):
 XXXX=          -7967.1374 YYYY=          -1588.5063 ZZZZ=           -540.0298 XXXY=           -144.1874
 XXXZ=            134.7248 YYYX=              6.2529 YYYZ=            -33.8820 ZZZX=             -8.0584
 ZZZY=            -26.4899 XXYY=          -1449.1655 XXZZ=          -1284.0438 YYZZ=           -349.0185
 XXYZ=             18.8338 YYXZ=             18.2263 ZZXY=            -28.8455
 N-N= 9.018481138294D+02 E-N=-3.366373343966D+03  KE= 6.679623739338D+02
 Leave Link  601 at Thu May  6 14:10:19 2021, MaxMem=   524288000 cpu:               0.6 elap:               0.6
 (Enter /opt/gaussian/g16_legacy/l9999.exe)
 1\1\GINC-TRUENO91\SP\RMP2-FC\6-31G(d)\C12H19N1O2\JRAMOS\06-May-2021\0\
 \#p 6-31g* mp2\\Input file generated by CHIRIPA (05-May-2021 14:55:21)
 \\0,1\C,0,1.914143,0.,0.\C,0,1.214143,1.211,0.\C,0,-0.183857,1.223,0.\
 C,0,-0.852857,0.,0.\C,0,-0.183857,-1.223,0.\C,0,1.214143,-1.211,0.\H,0
 ,3.000143,0.,0.\H,0,1.755143,2.153,0.\H,0,-0.750857,2.146,0.\H,0,-0.75
 0857,-2.146,0.\H,0,1.755143,-2.153,0.\N,0,-2.332857,0.,0.\O,0,-2.89885
 7,-1.091,0.\O,0,-2.898857,1.091,0.\C,0,4.639592,3.82014,-0.850768\C,0,
 4.406485,5.126037,-1.611216\C,0,3.981148,4.897487,-3.061956\H,0,5.4079
 08,3.23224,-1.371352\H,0,3.718689,3.22114,-0.873821\H,0,5.327128,5.723
 007,-1.585552\H,0,3.638772,5.710983,-1.088655\H,0,3.050162,4.322983,-3
 .104509\H,0,4.748111,4.335076,-3.60423\H,0,3.819898,5.844191,-3.586941
 \C,0,5.065338,4.032172,0.600959\C,0,5.298444,2.726275,1.361407\C,0,5.7
 23782,2.954825,2.812147\H,0,5.98624,4.631172,0.624012\H,0,4.297021,4.6
 20072,1.121543\H,0,6.066158,2.141329,0.838846\H,0,4.377801,2.129305,1.
 335744\H,0,4.956818,3.517236,3.354422\H,0,6.654768,3.529329,2.854701\H
 ,0,5.885032,2.008121,3.337133\\Version=EM64L-G16RevA.03\State=1-A\HF=-
 669.5354783\MP2=-671.6273894\RMSD=6.854e-09\PG=C01 [X(C12H19N1O2)]\\@


 I WISH TO HAVE NO CONNECTION WITH ANY SHIP THAT DOES NOT SAIL FAST,
 FOR I INTEND TO GO IN HARM'S WAY.
     -- JOHN PAUL JONES, USN 1747-1792
 Job cpu time:       0 days  0 hours  3 minutes 48.2 seconds.
 Elapsed time:       0 days  0 hours  1 minutes 57.8 seconds.
 File lengths (MBytes):  RWF=     43 Int=      0 D2E=      0 Chk=      6 Scr=      1
 Normal termination of Gaussian 16 at Thu May  6 14:10:19 2021.
