 Entering Gaussian System, Link 0=/opt/gaussian/g16_legacy/g16
 Input=gaussian_02616_2_2.com
 Output=gaussian_02616_2_2.log
 Initial command:
 /opt/gaussian/g16_legacy/l1.exe "/scratch-local/jramos/2602162/Gau-14206.inp" -scrdir="/scratch-local/jramos/2602162/"
 Entering Link 1 = /opt/gaussian/g16_legacy/l1.exe PID=     14207.
  
 Copyright (c) 1988,1990,1992,1993,1995,1998,2003,2009,2016,
            Gaussian, Inc.  All Rights Reserved.
  
 This is part of the Gaussian(R) 16 program.  It is based on
 the Gaussian(R) 09 system (copyright 2009, Gaussian, Inc.),
 the Gaussian(R) 03 system (copyright 2003, Gaussian, Inc.),
 the Gaussian(R) 98 system (copyright 1998, Gaussian, Inc.),
 the Gaussian(R) 94 system (copyright 1995, Gaussian, Inc.),
 the Gaussian 92(TM) system (copyright 1992, Gaussian, Inc.),
 the Gaussian 90(TM) system (copyright 1990, Gaussian, Inc.),
 the Gaussian 88(TM) system (copyright 1988, Gaussian, Inc.),
 the Gaussian 86(TM) system (copyright 1986, Carnegie Mellon
 University), and the Gaussian 82(TM) system (copyright 1983,
 Carnegie Mellon University). Gaussian is a federally registered
 trademark of Gaussian, Inc.
  
 This software contains proprietary and confidential information,
 including trade secrets, belonging to Gaussian, Inc.
  
 This software is provided under written license and may be
 used, copied, transmitted, or stored only in accord with that
 written license.
  
 The following legend is applicable only to US Government
 contracts under FAR:
  
                    RESTRICTED RIGHTS LEGEND
  
 Use, reproduction and disclosure by the US Government is
 subject to restrictions as set forth in subparagraphs (a)
 and (c) of the Commercial Computer Software - Restricted
 Rights clause in FAR 52.227-19.
  
 Gaussian, Inc.
 340 Quinnipiac St., Bldg. 40, Wallingford CT 06492
  
  
 ---------------------------------------------------------------
 Warning -- This program may not be used in any manner that
 competes with the business of Gaussian, Inc. or will provide
 assistance to any competitor of Gaussian, Inc.  The licensee
 of this program is prohibited from giving any competitor of
 Gaussian, Inc. access to this program.  By using this program,
 the user acknowledges that Gaussian, Inc. is engaged in the
 business of creating and licensing software in the field of
 computational chemistry and represents and warrants to the
 licensee that it is not a competitor of Gaussian, Inc. and that
 it will not use this program in any manner prohibited above.
 ---------------------------------------------------------------
  

 Cite this work as:
 Gaussian 16, Revision A.03,
 M. J. Frisch, G. W. Trucks, H. B. Schlegel, G. E. Scuseria, 
 M. A. Robb, J. R. Cheeseman, G. Scalmani, V. Barone, 
 G. A. Petersson, H. Nakatsuji, X. Li, M. Caricato, A. V. Marenich, 
 J. Bloino, B. G. Janesko, R. Gomperts, B. Mennucci, H. P. Hratchian, 
 J. V. Ortiz, A. F. Izmaylov, J. L. Sonnenberg, D. Williams-Young, 
 F. Ding, F. Lipparini, F. Egidi, J. Goings, B. Peng, A. Petrone, 
 T. Henderson, D. Ranasinghe, V. G. Zakrzewski, J. Gao, N. Rega, 
 G. Zheng, W. Liang, M. Hada, M. Ehara, K. Toyota, R. Fukuda, 
 J. Hasegawa, M. Ishida, T. Nakajima, Y. Honda, O. Kitao, H. Nakai, 
 T. Vreven, K. Throssell, J. A. Montgomery, Jr., J. E. Peralta, 
 F. Ogliaro, M. J. Bearpark, J. J. Heyd, E. N. Brothers, K. N. Kudin, 
 V. N. Staroverov, T. A. Keith, R. Kobayashi, J. Normand, 
 K. Raghavachari, A. P. Rendell, J. C. Burant, S. S. Iyengar, 
 J. Tomasi, M. Cossi, J. M. Millam, M. Klene, C. Adamo, R. Cammi, 
 J. W. Ochterski, R. L. Martin, K. Morokuma, O. Farkas, 
 J. B. Foresman, and D. J. Fox, Gaussian, Inc., Wallingford CT, 2016.
 
 ******************************************
 Gaussian 16:  EM64L-G16RevA.03 25-Dec-2016
                 7-May-2021 
 ******************************************
 %chk=gaussian_02616_2_2.chk
 %nproc=2
 Will use up to    2 processors via shared memory.
 %mem=4000Mb
 -------------
 #p 6-31g* mp2
 -------------
 1/38=1,172=1/1;
 2/12=2,17=6,18=5,40=1/2;
 3/5=1,6=6,7=1,11=9,25=1,30=1/1,2,3;
 4//1;
 5/5=2,38=5/2;
 8/10=2/1;
 9/16=-3/6;
 6/7=2,8=2,9=2,10=2/1;
 99/5=1,9=1/99;
 Leave Link    1 at Fri May  7 00:18:42 2021, MaxMem=   524288000 cpu:               0.1 elap:               0.1
 (Enter /opt/gaussian/g16_legacy/l101.exe)
 ------------------------------------------------------
 Input file generated by CHIRIPA (05-May-2021 14:57:24)
 ------------------------------------------------------
 Symbolic Z-matrix:
 Charge =  0 Multiplicity = 1
 C                     1.91414   0.        0. 
 C                     1.21414   1.211     0. 
 C                    -0.18386   1.223     0. 
 C                    -0.85286   0.        0. 
 C                    -0.18386  -1.223     0. 
 C                     1.21414  -1.211     0. 
 H                     3.00014   0.        0. 
 H                     1.75514   2.153     0. 
 H                    -0.75086   2.146     0. 
 H                    -0.75086  -2.146     0. 
 H                     1.75514  -2.153     0. 
 N                    -2.33286   0.        0. 
 O                    -2.89886  -1.091     0. 
 O                    -2.89886   1.091     0. 
 C                    -3.26899  -4.96838  -3.89467 
 C                    -1.98099  -4.78346  -3.38144 
 C                    -1.39793  -3.51288  -3.3674 
 C                    -2.13459  -2.44467  -3.87686 
 C                    -3.41979  -2.59681  -4.39493 
 C                    -3.98302  -3.87639  -4.39889 
 H                    -3.71422  -5.95889  -3.90166 
 H                    -1.42413  -5.62969  -2.9892 
 H                    -0.40253  -3.34141  -2.97601 
 H                    -3.95029  -1.73399  -4.77903 
 H                    -4.98347  -4.01703  -4.79809 
 N                    -1.52783  -1.09479  -3.86734 
 O                    -2.19761  -0.16997  -4.32201 
 O                    -0.39397  -0.98716  -3.40538 
 
 ITRead=  0  0  0  0  0  0  0  0  0  0  0  0  0  0  0  0  0  0  0  0
 ITRead=  0  0  0  0  0  0  0  0
 MicOpt= -1 -1 -1 -1 -1 -1 -1 -1 -1 -1 -1 -1 -1 -1 -1 -1 -1 -1 -1 -1
 MicOpt= -1 -1 -1 -1 -1 -1 -1 -1
 NAtoms=     28 NQM=       28 NQMF=       0 NMMI=      0 NMMIF=      0
                NMic=       0 NMicF=      0.
                    Isotopes and Nuclear Properties:
 (Nuclear quadrupole moments (NQMom) in fm**2, nuclear magnetic moments (NMagM)
  in nuclear magnetons)

  Atom         1           2           3           4           5           6           7           8           9          10
 IAtWgt=          12          12          12          12          12          12           1           1           1           1
 AtmWgt=  12.0000000  12.0000000  12.0000000  12.0000000  12.0000000  12.0000000   1.0078250   1.0078250   1.0078250   1.0078250
 NucSpn=           0           0           0           0           0           0           1           1           1           1
 AtZEff=  -0.0000000  -0.0000000  -0.0000000  -0.0000000  -0.0000000  -0.0000000  -0.0000000  -0.0000000  -0.0000000  -0.0000000
 NQMom=    0.0000000   0.0000000   0.0000000   0.0000000   0.0000000   0.0000000   0.0000000   0.0000000   0.0000000   0.0000000
 NMagM=    0.0000000   0.0000000   0.0000000   0.0000000   0.0000000   0.0000000   2.7928460   2.7928460   2.7928460   2.7928460
 AtZNuc=   6.0000000   6.0000000   6.0000000   6.0000000   6.0000000   6.0000000   1.0000000   1.0000000   1.0000000   1.0000000

  Atom        11          12          13          14          15          16          17          18          19          20
 IAtWgt=           1          14          16          16          12          12          12          12          12          12
 AtmWgt=   1.0078250  14.0030740  15.9949146  15.9949146  12.0000000  12.0000000  12.0000000  12.0000000  12.0000000  12.0000000
 NucSpn=           1           2           0           0           0           0           0           0           0           0
 AtZEff=  -0.0000000  -0.0000000  -0.0000000  -0.0000000  -0.0000000  -0.0000000  -0.0000000  -0.0000000  -0.0000000  -0.0000000
 NQMom=    0.0000000   2.0440000   0.0000000   0.0000000   0.0000000   0.0000000   0.0000000   0.0000000   0.0000000   0.0000000
 NMagM=    2.7928460   0.4037610   0.0000000   0.0000000   0.0000000   0.0000000   0.0000000   0.0000000   0.0000000   0.0000000
 AtZNuc=   1.0000000   7.0000000   8.0000000   8.0000000   6.0000000   6.0000000   6.0000000   6.0000000   6.0000000   6.0000000

  Atom        21          22          23          24          25          26          27          28
 IAtWgt=           1           1           1           1           1          14          16          16
 AtmWgt=   1.0078250   1.0078250   1.0078250   1.0078250   1.0078250  14.0030740  15.9949146  15.9949146
 NucSpn=           1           1           1           1           1           2           0           0
 AtZEff=  -0.0000000  -0.0000000  -0.0000000  -0.0000000  -0.0000000  -0.0000000  -0.0000000  -0.0000000
 NQMom=    0.0000000   0.0000000   0.0000000   0.0000000   0.0000000   2.0440000   0.0000000   0.0000000
 NMagM=    2.7928460   2.7928460   2.7928460   2.7928460   2.7928460   0.4037610   0.0000000   0.0000000
 AtZNuc=   1.0000000   1.0000000   1.0000000   1.0000000   1.0000000   7.0000000   8.0000000   8.0000000
 Leave Link  101 at Fri May  7 00:18:42 2021, MaxMem=   524288000 cpu:               0.3 elap:               0.2
 (Enter /opt/gaussian/g16_legacy/l202.exe)
                          Input orientation:                          
 ---------------------------------------------------------------------
 Center     Atomic      Atomic             Coordinates (Angstroms)
 Number     Number       Type             X           Y           Z
 ---------------------------------------------------------------------
      1          6           0        1.914143    0.000000    0.000000
      2          6           0        1.214143    1.211000    0.000000
      3          6           0       -0.183857    1.223000    0.000000
      4          6           0       -0.852857    0.000000    0.000000
      5          6           0       -0.183857   -1.223000    0.000000
      6          6           0        1.214143   -1.211000    0.000000
      7          1           0        3.000143    0.000000    0.000000
      8          1           0        1.755143    2.153000    0.000000
      9          1           0       -0.750857    2.146000    0.000000
     10          1           0       -0.750857   -2.146000    0.000000
     11          1           0        1.755143   -2.153000    0.000000
     12          7           0       -2.332857    0.000000    0.000000
     13          8           0       -2.898857   -1.091000    0.000000
     14          8           0       -2.898857    1.091000    0.000000
     15          6           0       -3.268985   -4.968379   -3.894669
     16          6           0       -1.980993   -4.783464   -3.381440
     17          6           0       -1.397932   -3.512877   -3.367403
     18          6           0       -2.134591   -2.444667   -3.876863
     19          6           0       -3.419793   -2.596813   -4.394934
     20          6           0       -3.983015   -3.876388   -4.398889
     21          1           0       -3.714215   -5.958892   -3.901658
     22          1           0       -1.424132   -5.629690   -2.989200
     23          1           0       -0.402527   -3.341408   -2.976014
     24          1           0       -3.950289   -1.733988   -4.779025
     25          1           0       -4.983466   -4.017027   -4.798092
     26          7           0       -1.527831   -1.094795   -3.867339
     27          8           0       -2.197606   -0.169965   -4.322012
     28          8           0       -0.393968   -0.987157   -3.405383
 ---------------------------------------------------------------------
                    Distance matrix (angstroms):
                    1          2          3          4          5
     1  C    0.000000
     2  C    1.398757   0.000000
     3  C    2.428443   1.398052   0.000000
     4  C    2.767000   2.395623   1.394019   0.000000
     5  C    2.428443   2.806913   2.446000   1.394019   0.000000
     6  C    1.398757   2.422000   2.806913   2.395623   1.398052
     7  H    1.086000   2.157850   3.410804   3.853000   3.410804
     8  H    2.158863   1.086299   2.150493   3.381874   3.893212
     9  H    3.421628   2.176109   1.083244   2.148423   3.416380
    10  H    3.421628   3.889817   3.416380   2.148423   1.083244
    11  H    2.158863   3.407224   3.893212   3.381874   2.150493
    12  N    4.247000   3.748030   2.472636   1.480000   2.472636
    13  O    4.935104   4.713382   3.567327   2.318706   2.718207
    14  O    4.935104   4.114750   2.718207   2.318706   3.567327
    15  C    8.168112   8.570391   7.938491   6.759505   6.222084
    16  C    7.034753   7.587927   7.123303   5.965598   5.228837
    17  C    5.886387   6.362181   5.936490   4.896613   4.249343
    18  C    6.115449   6.293488   5.682184   4.759129   4.508647
    19  C    7.383072   7.435607   6.661659   5.713847   5.627974
    20  C    8.315833   8.499541   7.732243   6.646390   6.389389
    21  H    9.077981   9.535145   8.903142   7.675852   7.079197
    22  H    7.195332   7.917755   7.578454   6.399616   5.467405
    23  H    5.038713   5.674037   5.453283   4.497162   3.659526
    24  H    7.761273   7.627804   6.765269   5.953140   6.106243
    25  H    9.313174   9.421481   8.574136   7.498008   7.339245
    26  N    5.291698   5.271757   4.704758   4.075595   4.096219
    27  O    5.967843   5.676873   4.967426   4.529572   4.883017
    28  O    4.230661   4.360567   4.065166   3.575149   3.420000
                    6          7          8          9         10
     6  C    0.000000
     7  H    2.157850   0.000000
     8  H    3.407224   2.487053   0.000000
     9  H    3.889817   4.321495   2.506010   0.000000
    10  H    2.176109   4.321495   4.976087   4.292000   0.000000
    11  H    1.086299   2.487053   4.306000   4.976087   2.506010
    12  N    3.748030   5.333000   4.620298   2.666091   2.666091
    13  O    4.114750   5.999040   5.673028   3.884852   2.393100
    14  O    4.713382   5.999040   4.773632   2.393100   3.884852
    15  C    7.027431   8.896921   9.545907   8.492573   5.429110
    16  C    5.865623   7.689433   8.573645   7.807999   4.461344
    17  C    4.843653   6.559175   7.306398   6.616721   3.691404
    18  C    5.269347   6.882729   7.162307   6.165956   4.127225
    19  C    6.535234   8.202101   8.285900   6.995208   5.161579
    20  C    7.311974   9.118174   9.414361   8.128113   5.726370
    21  H    7.877444   9.788459  10.532787   9.470676   6.208266
    22  H    5.951524   7.759055   8.922632   8.357629   4.639473
    23  H    4.001115   5.621373   6.610652   6.252171   3.225987
    24  H    7.055775   8.611289   8.396411   6.937561   5.765865
    25  H    8.325012  10.143777  10.319873   8.883669   6.666139
    26  N    4.742176   6.054538   6.023487   5.105169   4.082283
    27  O    5.603889   6.762046   6.300808   5.112393   4.967654
    28  O    3.772633   4.908269   5.106456   4.641193   3.614820
                   11         12         13         14         15
    11  H    0.000000
    12  N    4.620298   0.000000
    13  O    4.773632   1.229080   0.000000
    14  O    5.673028   1.229080   2.182000   0.000000
    15  C    6.952458   6.381972   5.508131   7.212594   0.000000
    16  C    5.684381   5.868515   5.090275   6.840025   1.398757
    17  C    4.809423   4.955178   4.411085   5.898124   2.428443
    18  C    5.499561   4.587567   4.176911   5.302368   2.767000
    19  C    6.803850   5.219225   4.674857   5.760797   2.428443
    20  C    7.432816   6.090947   5.318271   6.723137   1.398757
    21  H    7.721504   7.255307   6.291591   8.098686   1.085999
    22  H    5.579469   6.438517   5.631149   7.501853   2.158863
    23  H    3.863226   4.873176   4.489171   5.893604   3.421629
    24  H    7.454301   5.334968   4.935385   5.650234   3.421629
    25  H    8.479690   6.795875   5.994073   7.311581   2.158863
    26  N    5.182087   4.099141   4.103174   4.649056   4.247001
    27  O    6.183562   4.327467   4.474354   4.556487   4.935104
    28  O    4.192195   4.041089   4.228698   4.710609   4.935104
                   16         17         18         19         20
    16  C    0.000000
    17  C    1.398052   0.000000
    18  C    2.395623   1.394019   0.000000
    19  C    2.806913   2.446000   1.394019   0.000000
    20  C    2.421999   2.806912   2.395623   1.398051   0.000000
    21  H    2.157850   3.410804   3.852999   3.410804   2.157850
    22  H    1.086299   2.150493   3.381874   3.893211   3.407224
    23  H    2.176109   1.083244   2.148422   3.416380   3.889816
    24  H    3.889817   3.416380   2.148423   1.083245   2.176109
    25  H    3.407224   3.893211   3.381873   2.150492   1.086299
    26  N    3.748030   2.472636   1.480001   2.472637   3.748031
    27  O    4.713382   3.567326   2.318706   2.718207   4.114750
    28  O    4.114750   2.718207   2.318706   3.567327   4.713382
                   21         22         23         24         25
    21  H    0.000000
    22  H    2.487053   0.000000
    23  H    4.321495   2.506010   0.000000
    24  H    4.321495   4.976086   4.292000   0.000000
    25  H    2.487053   4.305999   4.976086   2.506010   0.000000
    26  N    5.333000   4.620298   2.666091   2.666091   4.620298
    27  O    5.999040   5.673028   3.884851   2.393100   4.773631
    28  O    5.999040   4.773632   2.393100   3.884851   5.673028
                   26         27         28
    26  N    0.000000
    27  O    1.229080   0.000000
    28  O    1.229079   2.181999   0.000000
 Stoichiometry    C12H10N2O4
 Framework group  C1[X(C12H10N2O4)]
 Deg. of freedom    78
 Full point group                 C1      NOp   1
 Largest Abelian subgroup         C1      NOp   1
 Largest concise Abelian subgroup C1      NOp   1
                         Standard orientation:                         
 ---------------------------------------------------------------------
 Center     Atomic      Atomic             Coordinates (Angstroms)
 Number     Number       Type             X           Y           Z
 ---------------------------------------------------------------------
      1          6           0       -3.587319   -1.938842    0.198197
      2          6           0       -4.014706   -0.721411    0.738311
      3          6           0       -3.385218    0.474345    0.379900
      4          6           0       -2.326763    0.415672   -0.525374
      5          6           0       -1.877858   -0.781542   -1.080760
      6          6           0       -2.522136   -1.964976   -0.708017
      7          1           0       -4.082065   -2.862948    0.482187
      8          1           0       -4.841681   -0.698097    1.442310
      9          1           0       -3.695715    1.430731    0.782811
     10          1           0       -1.050747   -0.772977   -1.780212
     11          1           0       -2.188086   -2.908992   -1.129073
     12          7           0       -1.652523    1.675043   -0.912394
     13          8           0       -0.722337    1.596498   -1.711908
     14          8           0       -2.067006    2.716836   -0.408899
     15          6           0        4.337702   -0.511280   -1.170807
     16          6           0        3.307277   -1.455407   -1.112753
     17          6           0        2.249630   -1.297615   -0.212179
     18          6           0        2.254219   -0.178803    0.619402
     19          6           0        3.266289    0.779238    0.585317
     20          6           0        4.313960    0.601069   -0.323081
     21          1           0        5.155433   -0.641771   -1.873433
     22          1           0        3.323103   -2.320247   -1.769903
     23          1           0        1.439056   -2.013188   -0.146275
     24          1           0        3.222988    1.631070    1.253094
     25          1           0        5.112854    1.335898   -0.365970
     26          7           0        1.139815   -0.000969    1.576941
     27          8           0        1.167096    0.993388    2.298846
     28          8           0        0.260167   -0.859308    1.587424
 ---------------------------------------------------------------------
 Rotational constants (GHZ):           0.6824782           0.2404453           0.2272862
 Leave Link  202 at Fri May  7 00:18:42 2021, MaxMem=   524288000 cpu:               0.1 elap:               0.1
 (Enter /opt/gaussian/g16_legacy/l301.exe)
 Standard basis: 6-31G(d) (6D, 7F)
 Ernie: Thresh=  0.10000D-02 Tol=  0.10000D-05 Strict=F.
 There are   290 symmetry adapted cartesian basis functions of A   symmetry.
 There are   290 symmetry adapted basis functions of A   symmetry.
   290 basis functions,   544 primitive gaussians,   290 cartesian basis functions
    64 alpha electrons       64 beta electrons
       nuclear repulsion energy      1227.8105764759 Hartrees.
 IExCor=    0 DFT=F Ex=HF Corr=None ExCW=0 ScaHFX=  1.000000
 ScaDFX=  1.000000  1.000000  1.000000  1.000000 ScalE2=  1.000000  1.000000
 IRadAn=      5 IRanWt=     -1 IRanGd=            0 ICorTp=0 IEmpDi=  4
 NAtoms=   28 NActive=   28 NUniq=   28 SFac= 1.00D+00 NAtFMM=   60 NAOKFM=F Big=F
 Integral buffers will be    131072 words long.
 Raffenetti 1 integral format.
 Two-electron integral symmetry is turned on.
 Leave Link  301 at Fri May  7 00:18:43 2021, MaxMem=   524288000 cpu:               0.3 elap:               0.2
 (Enter /opt/gaussian/g16_legacy/l302.exe)
 NPDir=0 NMtPBC=     1 NCelOv=     1 NCel=       1 NClECP=     1 NCelD=      1
         NCelK=      1 NCelE2=     1 NClLst=     1 CellRange=     0.0.
 One-electron integrals computed using PRISM.
 One-electron integral symmetry used in STVInt
 NBasis=   290 RedAO= T EigKep=  4.77D-04  NBF=   290
 NBsUse=   290 1.00D-06 EigRej= -1.00D+00 NBFU=   290
 Leave Link  302 at Fri May  7 00:18:43 2021, MaxMem=   524288000 cpu:               0.8 elap:               0.6
 (Enter /opt/gaussian/g16_legacy/l303.exe)
 DipDrv:  MaxL=1.
 Leave Link  303 at Fri May  7 00:18:44 2021, MaxMem=   524288000 cpu:               0.1 elap:               0.1
 (Enter /opt/gaussian/g16_legacy/l401.exe)
 ExpMin= 1.61D-01 ExpMax= 5.48D+03 ExpMxC= 8.25D+02 IAcc=3 IRadAn=         5 AccDes= 0.00D+00
 Harris functional with IExCor=  205 and IRadAn=       5 diagonalized for initial guess.
 HarFok:  IExCor=  205 AccDes= 0.00D+00 IRadAn=         5 IDoV= 1 UseB2=F ITyADJ=14
 ICtDFT=  3500011 ScaDFX=  1.000000  1.000000  1.000000  1.000000
 FoFCou: FMM=F IPFlag=           0 FMFlag=      100000 FMFlg1=           0
         NFxFlg=           0 DoJE=T BraDBF=F KetDBF=T FulRan=T
         wScrn=  0.000000 ICntrl=       500 IOpCl=  0 I1Cent=   200000004 NGrid=           0
         NMat0=    1 NMatS0=      1 NMatT0=    0 NMatD0=    1 NMtDS0=    0 NMtDT0=    0
 Petite list used in FoFCou.
 Harris En= -869.214366450279    
 JPrj=0 DoOrth=F DoCkMO=F.
 Leave Link  401 at Fri May  7 00:18:50 2021, MaxMem=   524288000 cpu:              12.4 elap:               6.6
 (Enter /opt/gaussian/g16_legacy/l502.exe)
 Integral symmetry usage will be decided dynamically.
 Closed shell SCF:
 Using DIIS extrapolation, IDIIS=  1040.
 NGot=   524288000 LenX=   524114954 LenY=   524030413
 Requested convergence on RMS density matrix=1.00D-08 within 128 cycles.
 Requested convergence on MAX density matrix=1.00D-06.
 Requested convergence on             energy=1.00D-06.
 No special actions if energy rises.
 Fock matrices will be formed incrementally for  20 cycles.
 Integral accuracy reduced to 1.0D-05 until final iterations.

 Cycle   1  Pass 0  IDiag  1:
 FoFJK:  IHMeth= 1 ICntrl=       0 DoSepK=F KAlg= 0 I1Cent=           0 FoldK=F
 IRaf= 780000000 NMat=       1 IRICut=       1 DoRegI=T DoRafI=F ISym2E= 0 IDoP0=0 IntGTp=1.
 FoFCou: FMM=F IPFlag=           0 FMFlag=      100000 FMFlg1=           0
         NFxFlg=           0 DoJE=F BraDBF=F KetDBF=F FulRan=T
         wScrn=  0.000000 ICntrl=         0 IOpCl=  0 I1Cent=           0 NGrid=           0
         NMat0=    1 NMatS0=      1 NMatT0=    0 NMatD0=    1 NMtDS0=    0 NMtDT0=    0
 Symmetry not used in FoFCou.
 E= -867.606931651693    
 DIIS: error= 6.01D-02 at cycle   1 NSaved=   1.
 NSaved= 1 IEnMin= 1 EnMin= -867.606931651693     IErMin= 1 ErrMin= 6.01D-02
 ErrMax= 6.01D-02  0.00D+00 EMaxC= 1.00D-01 BMatC= 1.29D+00 BMatP= 1.29D+00
 IDIUse=3 WtCom= 3.99D-01 WtEn= 6.01D-01
 Coeff-Com:  0.100D+01
 Coeff-En:   0.100D+01
 Coeff:      0.100D+01
 Gap=     0.554 Goal=   None    Shift=    0.000
 GapD=    0.554 DampG=2.000 DampE=0.500 DampFc=1.0000 IDamp=-1.
 RMSDP=4.47D-03 MaxDP=8.81D-02              OVMax= 1.53D-01

 Cycle   2  Pass 0  IDiag  1:
 RMSU=  4.36D-03    CP:  9.52D-01
 E= -868.115732316960     Delta-E=       -0.508800665267 Rises=F Damp=F
 DIIS: error= 2.33D-02 at cycle   2 NSaved=   2.
 NSaved= 2 IEnMin= 2 EnMin= -868.115732316960     IErMin= 2 ErrMin= 2.33D-02
 ErrMax= 2.33D-02  0.00D+00 EMaxC= 1.00D-01 BMatC= 2.95D-01 BMatP= 1.29D+00
 IDIUse=3 WtCom= 7.67D-01 WtEn= 2.33D-01
 Coeff-Com:  0.270D+00 0.730D+00
 Coeff-En:   0.000D+00 0.100D+01
 Coeff:      0.207D+00 0.793D+00
 Gap=     0.462 Goal=   None    Shift=    0.000
 RMSDP=1.84D-03 MaxDP=7.82D-02 DE=-5.09D-01 OVMax= 1.20D-01

 Cycle   3  Pass 0  IDiag  1:
 RMSU=  1.62D-03    CP:  9.54D-01  7.98D-01
 E= -868.294367311797     Delta-E=       -0.178634994837 Rises=F Damp=F
 DIIS: error= 1.10D-02 at cycle   3 NSaved=   3.
 NSaved= 3 IEnMin= 3 EnMin= -868.294367311797     IErMin= 3 ErrMin= 1.10D-02
 ErrMax= 1.10D-02  0.00D+00 EMaxC= 1.00D-01 BMatC= 5.77D-02 BMatP= 2.95D-01
 IDIUse=3 WtCom= 8.90D-01 WtEn= 1.10D-01
 Coeff-Com: -0.217D-01 0.288D+00 0.734D+00
 Coeff-En:   0.000D+00 0.307D-01 0.969D+00
 Coeff:     -0.193D-01 0.259D+00 0.760D+00
 Gap=     0.418 Goal=   None    Shift=    0.000
 RMSDP=6.50D-04 MaxDP=2.71D-02 DE=-1.79D-01 OVMax= 4.09D-02

 Cycle   4  Pass 0  IDiag  1:
 RMSU=  3.86D-04    CP:  9.53D-01  8.89D-01  7.90D-01
 E= -868.335641586908     Delta-E=       -0.041274275111 Rises=F Damp=F
 DIIS: error= 2.27D-03 at cycle   4 NSaved=   4.
 NSaved= 4 IEnMin= 4 EnMin= -868.335641586908     IErMin= 4 ErrMin= 2.27D-03
 ErrMax= 2.27D-03  0.00D+00 EMaxC= 1.00D-01 BMatC= 2.03D-03 BMatP= 5.77D-02
 IDIUse=3 WtCom= 9.77D-01 WtEn= 2.27D-02
 Coeff-Com: -0.124D-01 0.454D-01 0.234D+00 0.733D+00
 Coeff-En:   0.000D+00 0.000D+00 0.000D+00 0.100D+01
 Coeff:     -0.121D-01 0.443D-01 0.228D+00 0.739D+00
 Gap=     0.404 Goal=   None    Shift=    0.000
 RMSDP=1.62D-04 MaxDP=4.29D-03 DE=-4.13D-02 OVMax= 8.44D-03

 Cycle   5  Pass 0  IDiag  1:
 RMSU=  1.11D-04    CP:  9.53D-01  8.93D-01  8.50D-01  8.40D-01
 E= -868.337516434272     Delta-E=       -0.001874847363 Rises=F Damp=F
 DIIS: error= 4.99D-04 at cycle   5 NSaved=   5.
 NSaved= 5 IEnMin= 5 EnMin= -868.337516434272     IErMin= 5 ErrMin= 4.99D-04
 ErrMax= 4.99D-04  0.00D+00 EMaxC= 1.00D-01 BMatC= 8.20D-05 BMatP= 2.03D-03
 IDIUse=3 WtCom= 9.95D-01 WtEn= 4.99D-03
 Coeff-Com:  0.171D-02-0.209D-01-0.602D-01 0.143D-01 0.107D+01
 Coeff-En:   0.000D+00 0.000D+00 0.000D+00 0.000D+00 0.100D+01
 Coeff:      0.170D-02-0.208D-01-0.599D-01 0.143D-01 0.106D+01
 Gap=     0.406 Goal=   None    Shift=    0.000
 RMSDP=5.89D-05 MaxDP=1.31D-03 DE=-1.87D-03 OVMax= 4.63D-03

 Cycle   6  Pass 0  IDiag  1:
 RMSU=  3.01D-05    CP:  9.52D-01  8.97D-01  8.61D-01  9.37D-01  1.21D+00
 E= -868.337687298759     Delta-E=       -0.000170864488 Rises=F Damp=F
 DIIS: error= 1.62D-04 at cycle   6 NSaved=   6.
 NSaved= 6 IEnMin= 6 EnMin= -868.337687298759     IErMin= 6 ErrMin= 1.62D-04
 ErrMax= 1.62D-04  0.00D+00 EMaxC= 1.00D-01 BMatC= 1.30D-05 BMatP= 8.20D-05
 IDIUse=3 WtCom= 9.98D-01 WtEn= 1.62D-03
 Coeff-Com:  0.148D-02-0.884D-02-0.359D-01-0.678D-01 0.165D+00 0.946D+00
 Coeff-En:   0.000D+00 0.000D+00 0.000D+00 0.000D+00 0.000D+00 0.100D+01
 Coeff:      0.148D-02-0.882D-02-0.358D-01-0.677D-01 0.165D+00 0.946D+00
 Gap=     0.406 Goal=   None    Shift=    0.000
 RMSDP=2.34D-05 MaxDP=5.28D-04 DE=-1.71D-04 OVMax= 1.87D-03

 Cycle   7  Pass 0  IDiag  1:
 RMSU=  1.23D-05    CP:  9.52D-01  8.98D-01  8.64D-01  9.57D-01  1.36D+00
                    CP:  1.18D+00
 E= -868.337719791348     Delta-E=       -0.000032492589 Rises=F Damp=F
 DIIS: error= 1.51D-04 at cycle   7 NSaved=   7.
 NSaved= 7 IEnMin= 7 EnMin= -868.337719791348     IErMin= 7 ErrMin= 1.51D-04
 ErrMax= 1.51D-04  0.00D+00 EMaxC= 1.00D-01 BMatC= 2.85D-06 BMatP= 1.30D-05
 IDIUse=3 WtCom= 9.98D-01 WtEn= 1.51D-03
 Coeff-Com:  0.402D-04 0.134D-02 0.180D-02-0.122D-01-0.133D+00 0.163D+00
 Coeff-Com:  0.979D+00
 Coeff-En:   0.000D+00 0.000D+00 0.000D+00 0.000D+00 0.000D+00 0.000D+00
 Coeff-En:   0.100D+01
 Coeff:      0.401D-04 0.134D-02 0.180D-02-0.122D-01-0.133D+00 0.163D+00
 Coeff:      0.979D+00
 Gap=     0.406 Goal=   None    Shift=    0.000
 RMSDP=1.13D-05 MaxDP=3.13D-04 DE=-3.25D-05 OVMax= 1.25D-03

 Cycle   8  Pass 0  IDiag  1:
 RMSU=  6.09D-06    CP:  9.52D-01  8.98D-01  8.64D-01  9.64D-01  1.40D+00
                    CP:  1.42D+00  1.22D+00
 E= -868.337729033767     Delta-E=       -0.000009242419 Rises=F Damp=F
 DIIS: error= 5.18D-05 at cycle   8 NSaved=   8.
 NSaved= 8 IEnMin= 8 EnMin= -868.337729033767     IErMin= 8 ErrMin= 5.18D-05
 ErrMax= 5.18D-05  0.00D+00 EMaxC= 1.00D-01 BMatC= 8.11D-07 BMatP= 2.85D-06
 IDIUse=1 WtCom= 1.00D+00 WtEn= 0.00D+00
 Coeff-Com: -0.364D-03 0.260D-02 0.975D-02 0.165D-01-0.690D-01-0.215D+00
 Coeff-Com:  0.191D+00 0.107D+01
 Coeff:     -0.364D-03 0.260D-02 0.975D-02 0.165D-01-0.690D-01-0.215D+00
 Coeff:      0.191D+00 0.107D+01
 Gap=     0.406 Goal=   None    Shift=    0.000
 RMSDP=7.35D-06 MaxDP=2.03D-04 DE=-9.24D-06 OVMax= 8.18D-04

 Initial convergence to 1.0D-05 achieved.  Increase integral accuracy.
 Cycle   9  Pass 1  IDiag  1:
 E= -868.337729810000     Delta-E=       -0.000000776233 Rises=F Damp=F
 DIIS: error= 3.08D-05 at cycle   1 NSaved=   1.
 NSaved= 1 IEnMin= 1 EnMin= -868.337729810000     IErMin= 1 ErrMin= 3.08D-05
 ErrMax= 3.08D-05  0.00D+00 EMaxC= 1.00D-01 BMatC= 3.74D-07 BMatP= 3.74D-07
 IDIUse=1 WtCom= 1.00D+00 WtEn= 0.00D+00
 Coeff-Com:  0.100D+01
 Coeff:      0.100D+01
 Gap=     0.406 Goal=   None    Shift=    0.000
 RMSDP=7.35D-06 MaxDP=2.03D-04 DE=-7.76D-07 OVMax= 2.60D-04

 Cycle  10  Pass 1  IDiag  1:
 RMSU=  1.75D-05    CP:  1.00D+00
 E= -868.337730448870     Delta-E=       -0.000000638870 Rises=F Damp=F
 DIIS: error= 2.05D-05 at cycle   2 NSaved=   2.
 NSaved= 2 IEnMin= 2 EnMin= -868.337730448870     IErMin= 2 ErrMin= 2.05D-05
 ErrMax= 2.05D-05  0.00D+00 EMaxC= 1.00D-01 BMatC= 8.53D-08 BMatP= 3.74D-07
 IDIUse=1 WtCom= 1.00D+00 WtEn= 0.00D+00
 Coeff-Com:  0.130D+00 0.870D+00
 Coeff:      0.130D+00 0.870D+00
 Gap=     0.406 Goal=   None    Shift=    0.000
 RMSDP=1.68D-06 MaxDP=5.20D-05 DE=-6.39D-07 OVMax= 1.67D-04

 Cycle  11  Pass 1  IDiag  1:
 RMSU=  1.46D-06    CP:  1.00D+00  1.05D+00
 E= -868.337730641547     Delta-E=       -0.000000192677 Rises=F Damp=F
 DIIS: error= 1.22D-05 at cycle   3 NSaved=   3.
 NSaved= 3 IEnMin= 3 EnMin= -868.337730641547     IErMin= 3 ErrMin= 1.22D-05
 ErrMax= 1.22D-05  0.00D+00 EMaxC= 1.00D-01 BMatC= 4.01D-08 BMatP= 8.53D-08
 IDIUse=1 WtCom= 1.00D+00 WtEn= 0.00D+00
 Coeff-Com: -0.135D+00 0.294D+00 0.841D+00
 Coeff:     -0.135D+00 0.294D+00 0.841D+00
 Gap=     0.406 Goal=   None    Shift=    0.000
 RMSDP=1.13D-06 MaxDP=2.62D-05 DE=-1.93D-07 OVMax= 1.15D-04

 Cycle  12  Pass 1  IDiag  1:
 RMSU=  9.34D-07    CP:  1.00D+00  1.07D+00  1.33D+00
 E= -868.337730757111     Delta-E=       -0.000000115564 Rises=F Damp=F
 DIIS: error= 8.00D-06 at cycle   4 NSaved=   4.
 NSaved= 4 IEnMin= 4 EnMin= -868.337730757111     IErMin= 4 ErrMin= 8.00D-06
 ErrMax= 8.00D-06  0.00D+00 EMaxC= 1.00D-01 BMatC= 1.03D-08 BMatP= 4.01D-08
 IDIUse=1 WtCom= 1.00D+00 WtEn= 0.00D+00
 Coeff-Com:  0.337D-02-0.508D+00-0.359D+00 0.186D+01
 Coeff:      0.337D-02-0.508D+00-0.359D+00 0.186D+01
 Gap=     0.406 Goal=   None    Shift=    0.000
 RMSDP=1.56D-06 MaxDP=3.51D-05 DE=-1.16D-07 OVMax= 1.83D-04

 Cycle  13  Pass 1  IDiag  1:
 RMSU=  2.97D-07    CP:  1.00D+00  1.08D+00  2.16D+00  1.99D+00
 E= -868.337730827788     Delta-E=       -0.000000070677 Rises=F Damp=F
 DIIS: error= 2.54D-06 at cycle   5 NSaved=   5.
 NSaved= 5 IEnMin= 5 EnMin= -868.337730827788     IErMin= 5 ErrMin= 2.54D-06
 ErrMax= 2.54D-06  0.00D+00 EMaxC= 1.00D-01 BMatC= 9.76D-10 BMatP= 1.03D-08
 IDIUse=1 WtCom= 1.00D+00 WtEn= 0.00D+00
 Coeff-Com:  0.153D-01-0.220D+00-0.219D+00 0.700D+00 0.723D+00
 Coeff:      0.153D-01-0.220D+00-0.219D+00 0.700D+00 0.723D+00
 Gap=     0.406 Goal=   None    Shift=    0.000
 RMSDP=2.28D-07 MaxDP=5.54D-06 DE=-7.07D-08 OVMax= 3.12D-05

 Cycle  14  Pass 1  IDiag  1:
 RMSU=  1.00D-07    CP:  1.00D+00  1.08D+00  2.26D+00  2.13D+00  9.64D-01
 E= -868.337730829881     Delta-E=       -0.000000002094 Rises=F Damp=F
 DIIS: error= 4.58D-07 at cycle   6 NSaved=   6.
 NSaved= 6 IEnMin= 6 EnMin= -868.337730829881     IErMin= 6 ErrMin= 4.58D-07
 ErrMax= 4.58D-07  0.00D+00 EMaxC= 1.00D-01 BMatC= 4.54D-11 BMatP= 9.76D-10
 IDIUse=1 WtCom= 1.00D+00 WtEn= 0.00D+00
 Coeff-Com: -0.181D-02 0.621D-01 0.509D-01-0.217D+00-0.632D-01 0.117D+01
 Coeff:     -0.181D-02 0.621D-01 0.509D-01-0.217D+00-0.632D-01 0.117D+01
 Gap=     0.406 Goal=   None    Shift=    0.000
 RMSDP=5.86D-08 MaxDP=1.39D-06 DE=-2.09D-09 OVMax= 4.30D-06

 Cycle  15  Pass 1  IDiag  1:
 RMSU=  3.37D-08    CP:  1.00D+00  1.08D+00  2.27D+00  2.15D+00  1.09D+00
                    CP:  1.24D+00
 E= -868.337730830019     Delta-E=       -0.000000000137 Rises=F Damp=F
 DIIS: error= 1.23D-07 at cycle   7 NSaved=   7.
 NSaved= 7 IEnMin= 7 EnMin= -868.337730830019     IErMin= 7 ErrMin= 1.23D-07
 ErrMax= 1.23D-07  0.00D+00 EMaxC= 1.00D-01 BMatC= 7.21D-12 BMatP= 4.54D-11
 IDIUse=1 WtCom= 1.00D+00 WtEn= 0.00D+00
 Coeff-Com: -0.264D-02 0.463D-01 0.434D-01-0.154D+00-0.117D+00 0.281D+00
 Coeff-Com:  0.902D+00
 Coeff:     -0.264D-02 0.463D-01 0.434D-01-0.154D+00-0.117D+00 0.281D+00
 Coeff:      0.902D+00
 Gap=     0.406 Goal=   None    Shift=    0.000
 RMSDP=2.00D-08 MaxDP=4.70D-07 DE=-1.37D-10 OVMax= 1.73D-06

 Cycle  16  Pass 1  IDiag  1:
 RMSU=  1.02D-08    CP:  1.00D+00  1.08D+00  2.27D+00  2.15D+00  1.11D+00
                    CP:  1.38D+00  1.21D+00
 E= -868.337730830071     Delta-E=       -0.000000000052 Rises=F Damp=F
 DIIS: error= 4.21D-08 at cycle   8 NSaved=   8.
 NSaved= 8 IEnMin= 8 EnMin= -868.337730830071     IErMin= 8 ErrMin= 4.21D-08
 ErrMax= 4.21D-08  0.00D+00 EMaxC= 1.00D-01 BMatC= 9.48D-13 BMatP= 7.21D-12
 IDIUse=1 WtCom= 1.00D+00 WtEn= 0.00D+00
 Coeff-Com: -0.811D-03 0.118D-01 0.119D-01-0.383D-01-0.376D-01 0.848D-02
 Coeff-Com:  0.320D+00 0.724D+00
 Coeff:     -0.811D-03 0.118D-01 0.119D-01-0.383D-01-0.376D-01 0.848D-02
 Coeff:      0.320D+00 0.724D+00
 Gap=     0.406 Goal=   None    Shift=    0.000
 RMSDP=4.44D-09 MaxDP=1.88D-07 DE=-5.18D-11 OVMax= 2.84D-07

 SCF Done:  E(RHF) =  -868.337730830     A.U. after   16 cycles
            NFock= 16  Conv=0.44D-08     -V/T= 2.0031
 KE= 8.656880535186D+02 PE=-4.489337558177D+03 EE= 1.527501197352D+03
 Leave Link  502 at Fri May  7 00:20:06 2021, MaxMem=   524288000 cpu:             150.6 elap:              75.5
 (Enter /opt/gaussian/g16_legacy/l801.exe)
 ExpMin= 1.61D-01 ExpMax= 5.48D+03 ExpMxC= 8.25D+02 IAcc=3 IRadAn=         5 AccDes= 0.00D+00
 HarFok:  IExCor=  205 AccDes= 0.00D+00 IRadAn=         5 IDoV=-2 UseB2=F ITyADJ=14
 ICtDFT= 12500011 ScaDFX=  1.000000  1.000000  1.000000  1.000000
 Largest valence mixing into a core orbital is  1.94D-04
 Largest core mixing into a valence orbital is  4.00D-05
 Range of M.O.s used for correlation:    19   290
 NBasis=   290 NAE=    64 NBE=    64 NFC=    18 NFV=     0
 NROrb=    272 NOA=    46 NOB=    46 NVA=   226 NVB=   226
 Leave Link  801 at Fri May  7 00:20:07 2021, MaxMem=   524288000 cpu:               1.7 elap:               0.9
 (Enter /opt/gaussian/g16_legacy/l906.exe)
 FulOut=F Deriv=F AODrv=F NAtomX=    28
   MMem=          85  MDisk=          46 MDiskD=          46
  W3Min=     3014840 MinDsk=     3114491 NBas6D=         290
 NBas2D=       42681    NTT=       42195    LW2=     2000000
    MDV=   523910788 MDiskM=       24995 NBas2p=       32917
 Fully direct method using O(OVN) memory.
 IMap=   1   2   3   4   5   6   7   8   9  10  11  12  13  14  15  16  17  18  19  20
 IMap=  21  22  23  24  25  26  27  28  29  30  31  32  33  34  35  36  37  38  39  40
 IMap=  41  42  43  44  45  46
 JobTyp=1 Pass  1:  I=   1 to  46 NPSUse=  2 ParTrn=T ParDer=T DoDerP=F.
 Spin components of T(2) and E(2):
     alpha-alpha T2 =       0.1272504715D+00 E2=     -0.3600356738D+00
     alpha-beta  T2 =       0.6482201139D+00 E2=     -0.1881806894D+01
     beta-beta   T2 =       0.1272504715D+00 E2=     -0.3600356738D+00
 The integrals were generated   1 times.
 ANorm=    0.1379391553D+01
 E2 =    -0.2601878242D+01 EUMP2 =    -0.87093960907193D+03
 Leave Link  906 at Fri May  7 00:22:15 2021, MaxMem=   524288000 cpu:             252.5 elap:             128.1
 (Enter /opt/gaussian/g16_legacy/l601.exe)
 Copying SCF densities to generalized density rwf, IOpCl= 0 IROHF=0.

 **********************************************************************

            Population analysis using the SCF density.

 **********************************************************************

 Orbital symmetries:
       Occupied  (A) (A) (A) (A) (A) (A) (A) (A) (A) (A) (A) (A)
                 (A) (A) (A) (A) (A) (A) (A) (A) (A) (A) (A) (A)
                 (A) (A) (A) (A) (A) (A) (A) (A) (A) (A) (A) (A)
                 (A) (A) (A) (A) (A) (A) (A) (A) (A) (A) (A) (A)
                 (A) (A) (A) (A) (A) (A) (A) (A) (A) (A) (A) (A)
                 (A) (A) (A) (A)
       Virtual   (A) (A) (A) (A) (A) (A) (A) (A) (A) (A) (A) (A)
                 (A) (A) (A) (A) (A) (A) (A) (A) (A) (A) (A) (A)
                 (A) (A) (A) (A) (A) (A) (A) (A) (A) (A) (A) (A)
                 (A) (A) (A) (A) (A) (A) (A) (A) (A) (A) (A) (A)
                 (A) (A) (A) (A) (A) (A) (A) (A) (A) (A) (A) (A)
                 (A) (A) (A) (A) (A) (A) (A) (A) (A) (A) (A) (A)
                 (A) (A) (A) (A) (A) (A) (A) (A) (A) (A) (A) (A)
                 (A) (A) (A) (A) (A) (A) (A) (A) (A) (A) (A) (A)
                 (A) (A) (A) (A) (A) (A) (A) (A) (A) (A) (A) (A)
                 (A) (A) (A) (A) (A) (A) (A) (A) (A) (A) (A) (A)
                 (A) (A) (A) (A) (A) (A) (A) (A) (A) (A) (A) (A)
                 (A) (A) (A) (A) (A) (A) (A) (A) (A) (A) (A) (A)
                 (A) (A) (A) (A) (A) (A) (A) (A) (A) (A) (A) (A)
                 (A) (A) (A) (A) (A) (A) (A) (A) (A) (A) (A) (A)
                 (A) (A) (A) (A) (A) (A) (A) (A) (A) (A) (A) (A)
                 (A) (A) (A) (A) (A) (A) (A) (A) (A) (A) (A) (A)
                 (A) (A) (A) (A) (A) (A) (A) (A) (A) (A) (A) (A)
                 (A) (A) (A) (A) (A) (A) (A) (A) (A) (A) (A) (A)
                 (A) (A) (A) (A) (A) (A) (A) (A) (A) (A)
 The electronic state is 1-A.
 Alpha  occ. eigenvalues --  -20.60652 -20.60638 -20.60157 -20.60111 -15.85662
 Alpha  occ. eigenvalues --  -15.85175 -11.30947 -11.30299 -11.27591 -11.27452
 Alpha  occ. eigenvalues --  -11.27245 -11.26988 -11.26870 -11.26666 -11.26575
 Alpha  occ. eigenvalues --  -11.26473 -11.25960 -11.25864  -1.59715  -1.59210
 Alpha  occ. eigenvalues --   -1.39271  -1.38773  -1.19105  -1.18477  -1.08524
 Alpha  occ. eigenvalues --   -1.07939  -1.04518  -1.03902  -0.95382  -0.94815
 Alpha  occ. eigenvalues --   -0.85925  -0.85334  -0.82228  -0.81682  -0.77290
 Alpha  occ. eigenvalues --   -0.76743  -0.71909  -0.71419  -0.71133  -0.70411
 Alpha  occ. eigenvalues --   -0.70251  -0.69685  -0.64783  -0.64548  -0.64193
 Alpha  occ. eigenvalues --   -0.63977  -0.61897  -0.61302  -0.55034  -0.54464
 Alpha  occ. eigenvalues --   -0.52819  -0.52635  -0.52152  -0.52058  -0.48690
 Alpha  occ. eigenvalues --   -0.48639  -0.48183  -0.48146  -0.44690  -0.44223
 Alpha  occ. eigenvalues --   -0.37062  -0.36393  -0.36102  -0.35401
 Alpha virt. eigenvalues --    0.05216   0.05834   0.11465   0.12259   0.16762
 Alpha virt. eigenvalues --    0.17319   0.21344   0.22196   0.26875   0.27935
 Alpha virt. eigenvalues --    0.28663   0.29172   0.31171   0.31517   0.32675
 Alpha virt. eigenvalues --    0.33132   0.34726   0.35265   0.36892   0.37780
 Alpha virt. eigenvalues --    0.43274   0.43959   0.44536   0.45176   0.46472
 Alpha virt. eigenvalues --    0.47123   0.48800   0.50050   0.51162   0.52090
 Alpha virt. eigenvalues --    0.56516   0.57394   0.67374   0.67787   0.68278
 Alpha virt. eigenvalues --    0.69712   0.70346   0.71002   0.71953   0.73201
 Alpha virt. eigenvalues --    0.77365   0.77939   0.78451   0.79137   0.79296
 Alpha virt. eigenvalues --    0.79582   0.79839   0.80385   0.80788   0.81015
 Alpha virt. eigenvalues --    0.81402   0.82311   0.82640   0.82985   0.85620
 Alpha virt. eigenvalues --    0.86647   0.87259   0.87787   0.89413   0.90497
 Alpha virt. eigenvalues --    0.93728   0.94240   0.96217   0.98493   1.00319
 Alpha virt. eigenvalues --    1.00983   1.02553   1.03654   1.05231   1.06110
 Alpha virt. eigenvalues --    1.07585   1.07829   1.08784   1.08866   1.09188
 Alpha virt. eigenvalues --    1.09437   1.09850   1.10256   1.14912   1.15297
 Alpha virt. eigenvalues --    1.16627   1.17133   1.17413   1.18056   1.19914
 Alpha virt. eigenvalues --    1.20122   1.22903   1.23689   1.24395   1.25418
 Alpha virt. eigenvalues --    1.27207   1.27983   1.28881   1.29532   1.30687
 Alpha virt. eigenvalues --    1.31526   1.32460   1.34240   1.34655   1.36363
 Alpha virt. eigenvalues --    1.40644   1.41434   1.46606   1.47267   1.47388
 Alpha virt. eigenvalues --    1.47951   1.52814   1.53316   1.53814   1.54741
 Alpha virt. eigenvalues --    1.60827   1.61139   1.65578   1.66102   1.66488
 Alpha virt. eigenvalues --    1.67376   1.67464   1.68047   1.68395   1.69146
 Alpha virt. eigenvalues --    1.72817   1.73407   1.73549   1.74032   1.74161
 Alpha virt. eigenvalues --    1.74365   1.75772   1.76438   1.97071   1.97511
 Alpha virt. eigenvalues --    1.99149   1.99937   2.00401   2.01252   2.04685
 Alpha virt. eigenvalues --    2.04800   2.05244   2.05634   2.10211   2.10663
 Alpha virt. eigenvalues --    2.12485   2.12961   2.13477   2.14820   2.21744
 Alpha virt. eigenvalues --    2.21956   2.22507   2.22584   2.24836   2.25626
 Alpha virt. eigenvalues --    2.27218   2.28477   2.33089   2.33727   2.36237
 Alpha virt. eigenvalues --    2.37035   2.37635   2.39182   2.43156   2.43278
 Alpha virt. eigenvalues --    2.43942   2.44095   2.44888   2.45764   2.45834
 Alpha virt. eigenvalues --    2.46622   2.47097   2.48587   2.58333   2.58840
 Alpha virt. eigenvalues --    2.59026   2.59505   2.59806   2.60567   2.70565
 Alpha virt. eigenvalues --    2.71413   2.81611   2.82400   2.83699   2.84280
 Alpha virt. eigenvalues --    2.91954   2.92028   2.92447   2.92797   2.92968
 Alpha virt. eigenvalues --    2.93122   3.00017   3.00756   3.05010   3.05029
 Alpha virt. eigenvalues --    3.05436   3.05680   3.07094   3.07733   3.10502
 Alpha virt. eigenvalues --    3.11681   3.23762   3.24182   3.24917   3.25752
 Alpha virt. eigenvalues --    3.28094   3.28316   3.43262   3.43811   3.53147
 Alpha virt. eigenvalues --    3.53692   3.77213   3.77826   4.12032   4.15349
 Alpha virt. eigenvalues --    4.28368   4.29979   4.38313   4.38982   4.48211
 Alpha virt. eigenvalues --    4.49261   4.50927   4.52197   4.53243   4.55124
 Alpha virt. eigenvalues --    4.72150   4.73174   4.76964   4.77617   5.09186
 Alpha virt. eigenvalues --    5.09901
          Condensed to atoms (all electrons):
               1          2          3          4          5          6
     1  C    4.868582   0.543247  -0.044644  -0.029238  -0.044091   0.543506
     2  C    0.543247   4.927426   0.522692  -0.038462  -0.030928  -0.042838
     3  C   -0.044644   0.522692   4.910773   0.548804  -0.052129  -0.030656
     4  C   -0.029238  -0.038462   0.548804   4.810195   0.548417  -0.037867
     5  C   -0.044091  -0.030928  -0.052129   0.548417   4.911446   0.521861
     6  C    0.543506  -0.042838  -0.030656  -0.037867   0.521861   4.926468
     7  H    0.381227  -0.028025   0.002180   0.000228   0.002186  -0.028403
     8  H   -0.027935   0.382466  -0.027311   0.001549   0.000218   0.002348
     9  H    0.001928  -0.024212   0.368290  -0.019398   0.002599  -0.000048
    10  H    0.001966  -0.000060   0.002632  -0.019447   0.367891  -0.025172
    11  H   -0.027741   0.002362   0.000214   0.001585  -0.028452   0.382704
    12  N    0.000011   0.001552  -0.043972   0.244581  -0.044843   0.001505
    13  O   -0.000004  -0.000028   0.003713  -0.088155   0.003946   0.000778
    14  O   -0.000004   0.000761   0.003690  -0.087361   0.003739  -0.000027
    15  C    0.000000  -0.000000  -0.000000   0.000000   0.000000   0.000000
    16  C    0.000000  -0.000000   0.000000   0.000000  -0.000026  -0.000000
    17  C    0.000000   0.000000   0.000002  -0.000012  -0.000357  -0.000102
    18  C    0.000000  -0.000001  -0.000003  -0.000007  -0.000070  -0.000010
    19  C   -0.000000   0.000000   0.000000  -0.000002   0.000004   0.000000
    20  C   -0.000000   0.000000   0.000000  -0.000000  -0.000000  -0.000000
    21  H    0.000000  -0.000000  -0.000000   0.000000   0.000000   0.000000
    22  H   -0.000000   0.000000   0.000000  -0.000000  -0.000001  -0.000000
    23  H    0.000004  -0.000001  -0.000003   0.000010   0.000630   0.000344
    24  H   -0.000000  -0.000000  -0.000000   0.000000   0.000000   0.000000
    25  H   -0.000000   0.000000   0.000000  -0.000000  -0.000000  -0.000000
    26  N    0.000004  -0.000003  -0.000019   0.000092   0.000183   0.000044
    27  O    0.000000   0.000000   0.000003  -0.000034  -0.000003   0.000000
    28  O    0.000034  -0.000031   0.000080   0.000170   0.001077  -0.000191
               7          8          9         10         11         12
     1  C    0.381227  -0.027935   0.001928   0.001966  -0.027741   0.000011
     2  C   -0.028025   0.382466  -0.024212  -0.000060   0.002362   0.001552
     3  C    0.002180  -0.027311   0.368290   0.002632   0.000214  -0.043972
     4  C    0.000228   0.001549  -0.019398  -0.019447   0.001585   0.244581
     5  C    0.002186   0.000218   0.002599   0.367891  -0.028452  -0.044843
     6  C   -0.028403   0.002348  -0.000048  -0.025172   0.382704   0.001505
     7  H    0.450885  -0.001209  -0.000072  -0.000073  -0.001236   0.000002
     8  H   -0.001209   0.449911  -0.001114   0.000007  -0.000096  -0.000050
     9  H   -0.000072  -0.001114   0.393926  -0.000078   0.000007  -0.005434
    10  H   -0.000073   0.000007  -0.000078   0.402760  -0.001172  -0.005464
    11  H   -0.001236  -0.000096   0.000007  -0.001172   0.456686  -0.000050
    12  N    0.000002  -0.000050  -0.005434  -0.005464  -0.000050   5.735934
    13  O    0.000000   0.000000   0.000045   0.009090  -0.000001   0.313290
    14  O    0.000000  -0.000001   0.008873   0.000047   0.000000   0.316066
    15  C   -0.000000  -0.000000   0.000000  -0.000000   0.000000  -0.000000
    16  C    0.000000  -0.000000   0.000000   0.000057  -0.000000  -0.000000
    17  C    0.000000   0.000000   0.000000   0.000650  -0.000007   0.000002
    18  C    0.000000  -0.000000   0.000000   0.000110  -0.000000   0.000032
    19  C   -0.000000   0.000000  -0.000000  -0.000005   0.000000   0.000002
    20  C    0.000000   0.000000  -0.000000  -0.000001  -0.000000  -0.000000
    21  H   -0.000000  -0.000000  -0.000000  -0.000000  -0.000000  -0.000000
    22  H    0.000000   0.000000   0.000000   0.000001  -0.000000   0.000000
    23  H   -0.000000  -0.000000   0.000000   0.000057   0.000038  -0.000001
    24  H   -0.000000  -0.000000  -0.000000  -0.000000   0.000000   0.000000
    25  H   -0.000000   0.000000  -0.000000  -0.000000   0.000000  -0.000000
    26  N   -0.000000   0.000000   0.000000   0.000005   0.000000   0.000060
    27  O    0.000000   0.000000   0.000000  -0.000001  -0.000000   0.000020
    28  O    0.000000  -0.000000   0.000005  -0.000054  -0.000005  -0.000164
              13         14         15         16         17         18
     1  C   -0.000004  -0.000004   0.000000   0.000000   0.000000   0.000000
     2  C   -0.000028   0.000761  -0.000000  -0.000000   0.000000  -0.000001
     3  C    0.003713   0.003690  -0.000000   0.000000   0.000002  -0.000003
     4  C   -0.088155  -0.087361   0.000000   0.000000  -0.000012  -0.000007
     5  C    0.003946   0.003739   0.000000  -0.000026  -0.000357  -0.000070
     6  C    0.000778  -0.000027   0.000000  -0.000000  -0.000102  -0.000010
     7  H    0.000000   0.000000  -0.000000   0.000000   0.000000   0.000000
     8  H    0.000000  -0.000001  -0.000000  -0.000000   0.000000  -0.000000
     9  H    0.000045   0.008873   0.000000   0.000000   0.000000   0.000000
    10  H    0.009090   0.000047  -0.000000   0.000057   0.000650   0.000110
    11  H   -0.000001   0.000000   0.000000  -0.000000  -0.000007  -0.000000
    12  N    0.313290   0.316066  -0.000000  -0.000000   0.000002   0.000032
    13  O    8.313776  -0.087502   0.000001  -0.000006   0.000003   0.000245
    14  O   -0.087502   8.299945  -0.000000   0.000000   0.000000  -0.000003
    15  C    0.000001  -0.000000   4.873403   0.542430  -0.044959  -0.029046
    16  C   -0.000006   0.000000   0.542430   4.932170   0.521689  -0.039077
    17  C    0.000003   0.000000  -0.044959   0.521689   4.923084   0.547244
    18  C    0.000245  -0.000003  -0.029046  -0.039077   0.547244   4.813784
    19  C   -0.000000   0.000000  -0.045141  -0.030386  -0.052550   0.548915
    20  C   -0.000002   0.000000   0.542773  -0.043356  -0.030655  -0.038958
    21  H    0.000000  -0.000000   0.381298  -0.028240   0.002184   0.000217
    22  H   -0.000000   0.000000  -0.027539   0.382690  -0.028070   0.001593
    23  H    0.000004  -0.000000   0.001978  -0.025158   0.368439  -0.019945
    24  H    0.000002  -0.000000   0.001925  -0.000057   0.002591  -0.019337
    25  H   -0.000000   0.000000  -0.027742   0.002339   0.000209   0.001548
    26  N   -0.000027  -0.000005   0.000001   0.001517  -0.044815   0.244203
    27  O   -0.000006  -0.000001  -0.000004  -0.000027   0.003722  -0.087596
    28  O   -0.000014   0.000001  -0.000005   0.000790   0.004127  -0.088070
              19         20         21         22         23         24
     1  C   -0.000000  -0.000000   0.000000  -0.000000   0.000004  -0.000000
     2  C    0.000000   0.000000  -0.000000   0.000000  -0.000001  -0.000000
     3  C    0.000000   0.000000  -0.000000   0.000000  -0.000003  -0.000000
     4  C   -0.000002  -0.000000   0.000000  -0.000000   0.000010   0.000000
     5  C    0.000004  -0.000000   0.000000  -0.000001   0.000630   0.000000
     6  C    0.000000  -0.000000   0.000000  -0.000000   0.000344   0.000000
     7  H   -0.000000   0.000000  -0.000000   0.000000  -0.000000  -0.000000
     8  H    0.000000   0.000000  -0.000000   0.000000  -0.000000  -0.000000
     9  H   -0.000000  -0.000000  -0.000000   0.000000   0.000000  -0.000000
    10  H   -0.000005  -0.000001  -0.000000   0.000001   0.000057  -0.000000
    11  H    0.000000  -0.000000  -0.000000  -0.000000   0.000038   0.000000
    12  N    0.000002  -0.000000  -0.000000   0.000000  -0.000001   0.000000
    13  O   -0.000000  -0.000002   0.000000  -0.000000   0.000004   0.000002
    14  O    0.000000   0.000000  -0.000000   0.000000  -0.000000  -0.000000
    15  C   -0.045141   0.542773   0.381298  -0.027539   0.001978   0.001925
    16  C   -0.030386  -0.043356  -0.028240   0.382690  -0.025158  -0.000057
    17  C   -0.052550  -0.030655   0.002184  -0.028070   0.368439   0.002591
    18  C    0.548915  -0.038958   0.000217   0.001593  -0.019945  -0.019337
    19  C    4.913390   0.522306   0.002176   0.000203   0.002624   0.368160
    20  C    0.522306   4.929555  -0.027821   0.002345  -0.000070  -0.023951
    21  H    0.002176  -0.027821   0.447654  -0.001214  -0.000072  -0.000071
    22  H    0.000203   0.002345  -0.001214   0.451267  -0.001174   0.000007
    23  H    0.002624  -0.000070  -0.000072  -0.001174   0.401462  -0.000076
    24  H    0.368160  -0.023951  -0.000071   0.000007  -0.000076   0.390954
    25  H   -0.027086   0.382440  -0.001194  -0.000094   0.000007  -0.001099
    26  N   -0.044050   0.001554   0.000002  -0.000050  -0.005327  -0.005418
    27  O    0.003808   0.000762   0.000000   0.000000   0.000043   0.008852
    28  O    0.003685  -0.000027   0.000000  -0.000001   0.008587   0.000044
              25         26         27         28
     1  C   -0.000000   0.000004   0.000000   0.000034
     2  C    0.000000  -0.000003   0.000000  -0.000031
     3  C    0.000000  -0.000019   0.000003   0.000080
     4  C   -0.000000   0.000092  -0.000034   0.000170
     5  C   -0.000000   0.000183  -0.000003   0.001077
     6  C   -0.000000   0.000044   0.000000  -0.000191
     7  H   -0.000000  -0.000000   0.000000   0.000000
     8  H    0.000000   0.000000   0.000000  -0.000000
     9  H   -0.000000   0.000000   0.000000   0.000005
    10  H   -0.000000   0.000005  -0.000001  -0.000054
    11  H    0.000000   0.000000  -0.000000  -0.000005
    12  N   -0.000000   0.000060   0.000020  -0.000164
    13  O   -0.000000  -0.000027  -0.000006  -0.000014
    14  O    0.000000  -0.000005  -0.000001   0.000001
    15  C   -0.027742   0.000001  -0.000004  -0.000005
    16  C    0.002339   0.001517  -0.000027   0.000790
    17  C    0.000209  -0.044815   0.003722   0.004127
    18  C    0.001548   0.244203  -0.087596  -0.088070
    19  C   -0.027086  -0.044050   0.003808   0.003685
    20  C    0.382440   0.001554   0.000762  -0.000027
    21  H   -0.001194   0.000002   0.000000   0.000000
    22  H   -0.000094  -0.000050   0.000000  -0.000001
    23  H    0.000007  -0.005327   0.000043   0.008587
    24  H   -0.001099  -0.005418   0.008852   0.000044
    25  H    0.446539  -0.000049  -0.000001   0.000000
    26  N   -0.000049   5.741512   0.314921   0.309625
    27  O   -0.000001   0.314921   8.299306  -0.087376
    28  O    0.000000   0.309625  -0.087376   8.312761
 Mulliken charges:
               1
     1  C   -0.166852
     2  C   -0.215920
     3  C   -0.164339
     4  C    0.164352
     5  C   -0.163296
     6  C   -0.214244
     7  H    0.222309
     8  H    0.221216
     9  H    0.274683
    10  H    0.266255
    11  H    0.215164
    12  N    0.486920
    13  O   -0.469146
    14  O   -0.458218
    15  C   -0.169373
    16  C   -0.217350
    17  C   -0.172420
    18  C    0.164233
    19  C   -0.166051
    20  C   -0.216894
    21  H    0.225080
    22  H    0.220036
    23  H    0.267601
    24  H    0.277476
    25  H    0.224182
    26  N    0.486036
    27  O   -0.456390
    28  O   -0.465050
 Sum of Mulliken charges =  -0.00000
 Mulliken charges with hydrogens summed into heavy atoms:
               1
     1  C    0.055457
     2  C    0.005297
     3  C    0.110344
     4  C    0.164352
     5  C    0.102959
     6  C    0.000920
    12  N    0.486920
    13  O   -0.469146
    14  O   -0.458218
    15  C    0.055707
    16  C    0.002686
    17  C    0.095181
    18  C    0.164233
    19  C    0.111425
    20  C    0.007287
    26  N    0.486036
    27  O   -0.456390
    28  O   -0.465050
 Electronic spatial extent (au):  <R**2>=           5066.3076
 Charge=             -0.0000 electrons
 Dipole moment (field-independent basis, Debye):
    X=              1.6105    Y=             -4.8680    Z=             -1.7900  Tot=              5.4309
 Quadrupole moment (field-independent basis, Debye-Ang):
   XX=            -73.7631   YY=           -104.3642   ZZ=           -109.6148
   XY=              7.8395   XZ=             -9.0587   YZ=              6.5736
 Traceless Quadrupole moment (field-independent basis, Debye-Ang):
   XX=             22.1509   YY=             -8.4502   ZZ=            -13.7007
   XY=              7.8395   XZ=             -9.0587   YZ=              6.5736
 Octapole moment (field-independent basis, Debye-Ang**2):
  XXX=             25.0990  YYY=            -29.3797  ZZZ=             -5.4045  XYY=              5.3093
  XXY=              0.2733  XXZ=              3.4352  XZZ=              1.4733  YZZ=             -7.0006
  YYZ=              1.1523  XYZ=              7.8556
 Hexadecapole moment (field-independent basis, Debye-Ang**3):
 XXXX=          -4304.1724 YYYY=          -1158.3999 ZZZZ=           -858.0277 XXXY=            111.0865
 XXXZ=           -251.2781 YYYX=             79.1627 YYYZ=             30.4965 ZZZX=             -9.6497
 ZZZY=             -6.8044 XXYY=           -927.7983 XXZZ=           -893.9251 YYZZ=           -331.6961
 XXYZ=             21.3314 YYXZ=            -18.9842 ZZXY=            -33.1651
 N-N= 1.227810576476D+03 E-N=-4.489337558781D+03  KE= 8.656880535186D+02
 Leave Link  601 at Fri May  7 00:22:15 2021, MaxMem=   524288000 cpu:               0.6 elap:               0.6
 (Enter /opt/gaussian/g16_legacy/l9999.exe)
 1\1\GINC-TRUENO91\SP\RMP2-FC\6-31G(d)\C12H10N2O4\JRAMOS\07-May-2021\0\
 \#p 6-31g* mp2\\Input file generated by CHIRIPA (05-May-2021 14:57:24)
 \\0,1\C,0,1.914143,0.,0.\C,0,1.214143,1.211,0.\C,0,-0.183857,1.223,0.\
 C,0,-0.852857,0.,0.\C,0,-0.183857,-1.223,0.\C,0,1.214143,-1.211,0.\H,0
 ,3.000143,0.,0.\H,0,1.755143,2.153,0.\H,0,-0.750857,2.146,0.\H,0,-0.75
 0857,-2.146,0.\H,0,1.755143,-2.153,0.\N,0,-2.332857,0.,0.\O,0,-2.89885
 7,-1.091,0.\O,0,-2.898857,1.091,0.\C,0,-3.268985,-4.968379,-3.894669\C
 ,0,-1.980993,-4.783464,-3.38144\C,0,-1.397932,-3.512877,-3.367403\C,0,
 -2.134591,-2.444667,-3.876863\C,0,-3.419793,-2.596813,-4.394934\C,0,-3
 .983015,-3.876388,-4.398889\H,0,-3.714215,-5.958892,-3.901658\H,0,-1.4
 24132,-5.62969,-2.9892\H,0,-0.402527,-3.341408,-2.976014\H,0,-3.950289
 ,-1.733988,-4.779025\H,0,-4.983466,-4.017027,-4.798092\N,0,-1.527831,-
 1.094795,-3.867339\O,0,-2.197606,-0.169965,-4.322012\O,0,-0.393968,-0.
 987157,-3.405383\\Version=EM64L-G16RevA.03\State=1-A\HF=-868.3377308\M
 P2=-870.9396091\RMSD=4.439e-09\PG=C01 [X(C12H10N2O4)]\\@


 BUT 'GLORY' DOESN'T MEAN 'A NICE KNOCK DOWN ARGUMENT', ALICE OBJECTED.
 WHEN I USE A WORD, HUMPTY DUMPTY SAID, IN A RATHER SCORNFUL TONE,
 IT MEANS JUST WHAT I CHOOSE IT TO MEAN....
 NEITHER MORE NOR LESS....
 THE QUESTION IS, SAID ALICE,
 WHETHER YOU CAN MAKE WORDS MEAN SO MANY DIFFERENT THINGS...
 THE QUESTION IS, SAID HUMPTY DUMPTY,
 WHICH IS TO BE MASTER....
 THAT IS ALL.....

 ALICE THROUGH THE LOOKING GLASS
 Job cpu time:       0 days  0 hours  6 minutes 59.9 seconds.
 Elapsed time:       0 days  0 hours  3 minutes 33.3 seconds.
 File lengths (MBytes):  RWF=     50 Int=      0 D2E=      0 Chk=      7 Scr=      1
 Normal termination of Gaussian 16 at Fri May  7 00:22:16 2021.
