 Entering Gaussian System, Link 0=/opt/gaussian/g16_legacy/g16
 Input=gaussian_00768_1_2.com
 Output=gaussian_00768_1_2.log
 Initial command:
 /opt/gaussian/g16_legacy/l1.exe "/scratch-local/jramos/2591610/Gau-30188.inp" -scrdir="/scratch-local/jramos/2591610/"
 Entering Link 1 = /opt/gaussian/g16_legacy/l1.exe PID=     30189.
  
 Copyright (c) 1988,1990,1992,1993,1995,1998,2003,2009,2016,
            Gaussian, Inc.  All Rights Reserved.
  
 This is part of the Gaussian(R) 16 program.  It is based on
 the Gaussian(R) 09 system (copyright 2009, Gaussian, Inc.),
 the Gaussian(R) 03 system (copyright 2003, Gaussian, Inc.),
 the Gaussian(R) 98 system (copyright 1998, Gaussian, Inc.),
 the Gaussian(R) 94 system (copyright 1995, Gaussian, Inc.),
 the Gaussian 92(TM) system (copyright 1992, Gaussian, Inc.),
 the Gaussian 90(TM) system (copyright 1990, Gaussian, Inc.),
 the Gaussian 88(TM) system (copyright 1988, Gaussian, Inc.),
 the Gaussian 86(TM) system (copyright 1986, Carnegie Mellon
 University), and the Gaussian 82(TM) system (copyright 1983,
 Carnegie Mellon University). Gaussian is a federally registered
 trademark of Gaussian, Inc.
  
 This software contains proprietary and confidential information,
 including trade secrets, belonging to Gaussian, Inc.
  
 This software is provided under written license and may be
 used, copied, transmitted, or stored only in accord with that
 written license.
  
 The following legend is applicable only to US Government
 contracts under FAR:
  
                    RESTRICTED RIGHTS LEGEND
  
 Use, reproduction and disclosure by the US Government is
 subject to restrictions as set forth in subparagraphs (a)
 and (c) of the Commercial Computer Software - Restricted
 Rights clause in FAR 52.227-19.
  
 Gaussian, Inc.
 340 Quinnipiac St., Bldg. 40, Wallingford CT 06492
  
  
 ---------------------------------------------------------------
 Warning -- This program may not be used in any manner that
 competes with the business of Gaussian, Inc. or will provide
 assistance to any competitor of Gaussian, Inc.  The licensee
 of this program is prohibited from giving any competitor of
 Gaussian, Inc. access to this program.  By using this program,
 the user acknowledges that Gaussian, Inc. is engaged in the
 business of creating and licensing software in the field of
 computational chemistry and represents and warrants to the
 licensee that it is not a competitor of Gaussian, Inc. and that
 it will not use this program in any manner prohibited above.
 ---------------------------------------------------------------
  

 Cite this work as:
 Gaussian 16, Revision A.03,
 M. J. Frisch, G. W. Trucks, H. B. Schlegel, G. E. Scuseria, 
 M. A. Robb, J. R. Cheeseman, G. Scalmani, V. Barone, 
 G. A. Petersson, H. Nakatsuji, X. Li, M. Caricato, A. V. Marenich, 
 J. Bloino, B. G. Janesko, R. Gomperts, B. Mennucci, H. P. Hratchian, 
 J. V. Ortiz, A. F. Izmaylov, J. L. Sonnenberg, D. Williams-Young, 
 F. Ding, F. Lipparini, F. Egidi, J. Goings, B. Peng, A. Petrone, 
 T. Henderson, D. Ranasinghe, V. G. Zakrzewski, J. Gao, N. Rega, 
 G. Zheng, W. Liang, M. Hada, M. Ehara, K. Toyota, R. Fukuda, 
 J. Hasegawa, M. Ishida, T. Nakajima, Y. Honda, O. Kitao, H. Nakai, 
 T. Vreven, K. Throssell, J. A. Montgomery, Jr., J. E. Peralta, 
 F. Ogliaro, M. J. Bearpark, J. J. Heyd, E. N. Brothers, K. N. Kudin, 
 V. N. Staroverov, T. A. Keith, R. Kobayashi, J. Normand, 
 K. Raghavachari, A. P. Rendell, J. C. Burant, S. S. Iyengar, 
 J. Tomasi, M. Cossi, J. M. Millam, M. Klene, C. Adamo, R. Cammi, 
 J. W. Ochterski, R. L. Martin, K. Morokuma, O. Farkas, 
 J. B. Foresman, and D. J. Fox, Gaussian, Inc., Wallingford CT, 2016.
 
 ******************************************
 Gaussian 16:  EM64L-G16RevA.03 25-Dec-2016
                 6-May-2021 
 ******************************************
 %chk=gaussian_00768_1_2.chk
 %nproc=2
 Will use up to    2 processors via shared memory.
 %mem=4000Mb
 -------------
 #p 6-31g* mp2
 -------------
 1/38=1,172=1/1;
 2/12=2,17=6,18=5,40=1/2;
 3/5=1,6=6,7=1,11=9,25=1,30=1/1,2,3;
 4//1;
 5/5=2,38=5/2;
 8/10=2/1;
 9/16=-3/6;
 6/7=2,8=2,9=2,10=2/1;
 99/5=1,9=1/99;
 Leave Link    1 at Thu May  6 02:30:27 2021, MaxMem=   524288000 cpu:               0.1 elap:               0.1
 (Enter /opt/gaussian/g16_legacy/l101.exe)
 ------------------------------------------------------
 Input file generated by CHIRIPA (05-May-2021 14:53:12)
 ------------------------------------------------------
 Symbolic Z-matrix:
 Charge =  0 Multiplicity = 1
 C                    -0.666    -0.374     0. 
 C                    -1.882     0.553     0. 
 C                    -3.207    -0.21      0. 
 H                    -0.713    -1.03     -0.88 
 H                    -0.713    -1.029     0.881 
 H                    -1.832     1.207    -0.88 
 H                    -1.832     1.207     0.88 
 H                    -3.283    -0.85      0.885 
 H                    -3.283    -0.85     -0.885 
 H                    -4.063     0.472     0. 
 C                     0.666     0.374     0. 
 C                     1.882    -0.553     0. 
 C                     3.207     0.21      0. 
 H                     0.713     1.029    -0.881 
 H                     0.713     1.03      0.88 
 H                     1.832    -1.207    -0.88 
 H                     1.832    -1.207     0.88 
 H                     3.283     0.85      0.885 
 H                     3.283     0.85     -0.885 
 H                     4.063    -0.472     0. 
 C                    -1.4029    4.93879  -2.92094 
 C                    -1.88492   5.86098  -3.85569 
 C                    -3.25398   6.12874  -3.94801 
 C                    -4.11664   5.45323  -3.08615 
 C                    -3.66705   4.52896  -2.1444 
 C                    -2.29394   4.27689  -2.06978 
 H                    -0.33781   4.73688  -2.85609 
 H                    -1.19525   6.3765   -4.51799 
 H                    -3.65419   6.83783  -4.66245 
 H                    -4.37901   4.03069  -1.49767 
 H                    -1.92243   3.5602   -1.34288 
 N                    -5.56815   5.72839  -3.17452 
 O                    -6.30749   5.12006  -2.40385 
 O                    -5.93901   6.54717  -4.01279 
 
 ITRead=  0  0  0  0  0  0  0  0  0  0  0  0  0  0  0  0  0  0  0  0
 ITRead=  0  0  0  0  0  0  0  0  0  0  0  0  0  0
 MicOpt= -1 -1 -1 -1 -1 -1 -1 -1 -1 -1 -1 -1 -1 -1 -1 -1 -1 -1 -1 -1
 MicOpt= -1 -1 -1 -1 -1 -1 -1 -1 -1 -1 -1 -1 -1 -1
 NAtoms=     34 NQM=       34 NQMF=       0 NMMI=      0 NMMIF=      0
                NMic=       0 NMicF=      0.
                    Isotopes and Nuclear Properties:
 (Nuclear quadrupole moments (NQMom) in fm**2, nuclear magnetic moments (NMagM)
  in nuclear magnetons)

  Atom         1           2           3           4           5           6           7           8           9          10
 IAtWgt=          12          12          12           1           1           1           1           1           1           1
 AtmWgt=  12.0000000  12.0000000  12.0000000   1.0078250   1.0078250   1.0078250   1.0078250   1.0078250   1.0078250   1.0078250
 NucSpn=           0           0           0           1           1           1           1           1           1           1
 AtZEff=  -0.0000000  -0.0000000  -0.0000000  -0.0000000  -0.0000000  -0.0000000  -0.0000000  -0.0000000  -0.0000000  -0.0000000
 NQMom=    0.0000000   0.0000000   0.0000000   0.0000000   0.0000000   0.0000000   0.0000000   0.0000000   0.0000000   0.0000000
 NMagM=    0.0000000   0.0000000   0.0000000   2.7928460   2.7928460   2.7928460   2.7928460   2.7928460   2.7928460   2.7928460
 AtZNuc=   6.0000000   6.0000000   6.0000000   1.0000000   1.0000000   1.0000000   1.0000000   1.0000000   1.0000000   1.0000000

  Atom        11          12          13          14          15          16          17          18          19          20
 IAtWgt=          12          12          12           1           1           1           1           1           1           1
 AtmWgt=  12.0000000  12.0000000  12.0000000   1.0078250   1.0078250   1.0078250   1.0078250   1.0078250   1.0078250   1.0078250
 NucSpn=           0           0           0           1           1           1           1           1           1           1
 AtZEff=  -0.0000000  -0.0000000  -0.0000000  -0.0000000  -0.0000000  -0.0000000  -0.0000000  -0.0000000  -0.0000000  -0.0000000
 NQMom=    0.0000000   0.0000000   0.0000000   0.0000000   0.0000000   0.0000000   0.0000000   0.0000000   0.0000000   0.0000000
 NMagM=    0.0000000   0.0000000   0.0000000   2.7928460   2.7928460   2.7928460   2.7928460   2.7928460   2.7928460   2.7928460
 AtZNuc=   6.0000000   6.0000000   6.0000000   1.0000000   1.0000000   1.0000000   1.0000000   1.0000000   1.0000000   1.0000000

  Atom        21          22          23          24          25          26          27          28          29          30
 IAtWgt=          12          12          12          12          12          12           1           1           1           1
 AtmWgt=  12.0000000  12.0000000  12.0000000  12.0000000  12.0000000  12.0000000   1.0078250   1.0078250   1.0078250   1.0078250
 NucSpn=           0           0           0           0           0           0           1           1           1           1
 AtZEff=  -0.0000000  -0.0000000  -0.0000000  -0.0000000  -0.0000000  -0.0000000  -0.0000000  -0.0000000  -0.0000000  -0.0000000
 NQMom=    0.0000000   0.0000000   0.0000000   0.0000000   0.0000000   0.0000000   0.0000000   0.0000000   0.0000000   0.0000000
 NMagM=    0.0000000   0.0000000   0.0000000   0.0000000   0.0000000   0.0000000   2.7928460   2.7928460   2.7928460   2.7928460
 AtZNuc=   6.0000000   6.0000000   6.0000000   6.0000000   6.0000000   6.0000000   1.0000000   1.0000000   1.0000000   1.0000000

  Atom        31          32          33          34
 IAtWgt=           1          14          16          16
 AtmWgt=   1.0078250  14.0030740  15.9949146  15.9949146
 NucSpn=           1           2           0           0
 AtZEff=  -0.0000000  -0.0000000  -0.0000000  -0.0000000
 NQMom=    0.0000000   2.0440000   0.0000000   0.0000000
 NMagM=    2.7928460   0.4037610   0.0000000   0.0000000
 AtZNuc=   1.0000000   7.0000000   8.0000000   8.0000000
 Leave Link  101 at Thu May  6 02:30:28 2021, MaxMem=   524288000 cpu:               0.3 elap:               0.2
 (Enter /opt/gaussian/g16_legacy/l202.exe)
                          Input orientation:                          
 ---------------------------------------------------------------------
 Center     Atomic      Atomic             Coordinates (Angstroms)
 Number     Number       Type             X           Y           Z
 ---------------------------------------------------------------------
      1          6           0       -0.666000   -0.374000    0.000000
      2          6           0       -1.882000    0.553000    0.000000
      3          6           0       -3.207000   -0.210000    0.000000
      4          1           0       -0.713000   -1.030000   -0.880000
      5          1           0       -0.713000   -1.029000    0.881000
      6          1           0       -1.832000    1.207000   -0.880000
      7          1           0       -1.832000    1.207000    0.880000
      8          1           0       -3.283000   -0.850000    0.885000
      9          1           0       -3.283000   -0.850000   -0.885000
     10          1           0       -4.063000    0.472000    0.000000
     11          6           0        0.666000    0.374000    0.000000
     12          6           0        1.882000   -0.553000    0.000000
     13          6           0        3.207000    0.210000    0.000000
     14          1           0        0.713000    1.029000   -0.881000
     15          1           0        0.713000    1.030000    0.880000
     16          1           0        1.832000   -1.207000   -0.880000
     17          1           0        1.832000   -1.207000    0.880000
     18          1           0        3.283000    0.850000    0.885000
     19          1           0        3.283000    0.850000   -0.885000
     20          1           0        4.063000   -0.472000    0.000000
     21          6           0       -1.402903    4.938790   -2.920937
     22          6           0       -1.884918    5.860975   -3.855687
     23          6           0       -3.253979    6.128738   -3.948008
     24          6           0       -4.116637    5.453226   -3.086151
     25          6           0       -3.667051    4.528956   -2.144404
     26          6           0       -2.293937    4.276891   -2.069780
     27          1           0       -0.337809    4.736883   -2.856093
     28          1           0       -1.195252    6.376499   -4.517986
     29          1           0       -3.654191    6.837832   -4.662454
     30          1           0       -4.379009    4.030693   -1.497667
     31          1           0       -1.922433    3.560204   -1.342876
     32          7           0       -5.568146    5.728386   -3.174520
     33          8           0       -6.307494    5.120058   -2.403846
     34          8           0       -5.939006    6.547173   -4.012785
 ---------------------------------------------------------------------
                    Distance matrix (angstroms):
                    1          2          3          4          5
     1  C    0.000000
     2  C    1.529047   0.000000
     3  C    2.546287   1.528985   0.000000
     4  H    1.098610   2.155655   2.768905   0.000000
     5  H    1.098815   2.155330   2.768927   1.761000   0.000000
     6  H    2.152561   1.097550   2.161692   2.501266   3.058264
     7  H    2.152561   1.097550   2.161692   3.058420   2.500372
     8  H    2.803300   2.171275   1.094806   3.122903   2.576229
     9  H    2.803300   2.171275   1.094806   2.576301   3.123411
    10  H    3.500761   2.182504   1.094468   3.775302   3.775137
    11  C    1.527654   2.554280   3.916782   2.155750   2.155507
    12  C    2.554280   3.923128   5.100546   2.781358   2.781504
    13  C    3.916782   5.100546   6.427736   4.204569   4.204484
    14  H    2.155507   2.781504   4.204484   2.504587   3.061615
    15  H    2.155750   2.781358   4.204569   3.061809   2.504587
    16  H    2.776381   4.203070   5.211519   2.551148   3.099973
    17  H    2.776381   4.203070   5.211519   3.099347   2.551217
    18  H    4.228002   5.248682   6.635279   4.755801   4.415730
    19  H    4.228002   5.248682   6.635279   4.416157   4.755777
    20  H    4.730015   6.032715   7.274720   4.888347   4.888413
    21  C    6.107425   5.291178   6.188431   6.345695   7.109515
    22  C    7.431487   6.560559   7.312384   7.596949   8.442828
    23  C    8.035546   6.968353   7.467836   8.192483   9.000506
    24  C    7.442297   6.207266   6.513363   7.647488   8.327202
    25  C    6.135451   4.857273   5.221860   6.420835   6.983578
    26  C    5.344619   4.280309   5.024924   5.663747   6.273671
    27  H    5.863966   5.295911   6.392275   6.107590   6.881282
    28  H    8.140119   7.402497   8.236583   8.265817   9.177311
    29  H    9.092760   8.023606   8.462292   9.211967  10.063177
    30  H    5.952375   4.535682   4.647590   6.279470   6.685669
    31  H    4.342799   3.293665   4.203316   4.769377   5.241102
    32  N    8.446758   7.102807   7.135616   8.632094   9.256455
    33  O    8.233444   6.798639   6.618237   8.452437   8.938652
    34  O    9.581736   8.275980   8.320198   9.723118  10.423947
                    6          7          8          9         10
     6  H    0.000000
     7  H    1.760000   0.000000
     8  H    3.074390   2.517275   0.000000
     9  H    2.517275   3.074390   1.770000   0.000000
    10  H    2.508383   2.508383   1.771810   1.771810   0.000000
    11  C    2.776381   2.776381   4.228002   4.228002   4.730015
    12  C    4.203070   4.203070   5.248682   5.248682   6.032715
    13  C    5.211519   5.211519   6.635279   6.635279   7.274720
    14  H    2.551217   3.099973   4.755777   4.415730   4.888413
    15  H    3.099347   2.551148   4.416157   4.755801   4.888347
    16  H    4.387743   4.727567   5.422721   5.127446   6.192291
    17  H    4.727567   4.387743   5.127446   5.422721   6.192291
    18  H    5.422721   5.127446   6.782504   7.009654   7.408767
    19  H    5.127446   5.422721   7.009654   6.782504   7.408767
    20  H    6.192291   6.192291   7.408767   7.408767   8.180649
    21  C    4.275021   5.343922   7.178441   6.417935   5.963238
    22  C    5.524219   6.639956   8.334622   7.471064   6.975057
    23  C    5.971449   7.039545   8.488910   7.621394   6.945500
    24  C    5.302556   6.243425   7.496376   6.728349   5.860019
    25  C    4.000190   4.852816   6.185301   5.537758   4.605881
    26  C    3.324634   4.282385   5.999498   5.354154   4.678757
    27  H    4.312496   5.352670   7.340517   6.616088   6.342203
    28  H    6.353276   7.501161   9.261384   8.353416   7.968644
    29  H    7.023789   8.108357   9.487612   8.573780   7.901229
    30  H    3.852533   4.484841   5.540713   5.039619   3.873908
    31  H    2.400000   3.238352   5.124888   4.637962   3.990282
    32  N    6.298138   7.130277   8.060816   7.330686   6.322392
    33  O    6.137115   6.791591   7.456921   6.862656   5.693915
    34  O    7.429622   8.326121   9.260715   8.459053   7.518615
                   11         12         13         14         15
    11  C    0.000000
    12  C    1.529047   0.000000
    13  C    2.546287   1.528985   0.000000
    14  H    1.098815   2.155330   2.768927   0.000000
    15  H    1.098610   2.155655   2.768905   1.761000   0.000000
    16  H    2.152561   1.097550   2.161692   2.500372   3.058420
    17  H    2.152561   1.097550   2.161692   3.058264   2.501266
    18  H    2.803300   2.171275   1.094806   3.123411   2.576301
    19  H    2.803300   2.171275   1.094806   2.576229   3.122903
    20  H    3.500761   2.182504   1.094468   3.775137   3.775302
    21  C    5.800822   7.034360   7.221117   4.891303   5.848317
    22  C    7.174984   8.378250   8.528040   6.240667   7.246670
    23  C    8.004375   9.306485   9.610540   7.151978   8.064968
    24  C    7.628662   9.032316   9.521103   6.910996   7.656414
    25  C    6.374752   7.824111   8.396691   5.747237   6.369816
    26  C    5.317685   6.711951   7.147300   4.582975   5.318381
    27  H    5.310334   6.408407   6.419938   4.330541   5.366896
    28  H    7.739926   8.826077   8.821436   6.742762   7.833564
    29  H    9.065520  10.344674  10.618031   8.192331   9.139041
    30  H    6.408317   7.902752   8.624861   5.942979   6.370715
    31  H    4.319166   5.761551   6.272022   3.683182   4.276519
    32  N    8.809745  10.248808  10.841280   8.172959   8.829879
    33  O    8.771155  10.248408  10.973274   8.266992   8.763536
    34  O    9.891239  11.299692  11.828425   9.192796   9.931149
                   16         17         18         19         20
    16  H    0.000000
    17  H    1.760000   0.000000
    18  H    3.074390   2.517275   0.000000
    19  H    2.517275   3.074390   1.770000   0.000000
    20  H    2.508383   2.508383   1.771810   1.771810   0.000000
    21  C    7.238837   7.917225   7.291162   6.543770   8.227066
    22  C    8.522116   9.284314   8.619244   7.787312   9.505294
    23  C    9.438904  10.148394   9.693046   8.943108  10.615776
    24  C    9.198478   9.771144   9.576761   8.988291  10.561207
    25  C    8.046084   8.502222   8.427053   7.963920   9.453133
    26  C    6.965055   7.469780   7.181680   6.652031   8.200403
    27  H    6.628934   7.348211   6.497222   5.665980   7.393027
    28  H    8.939164   9.788359   8.932479   7.987210   9.744914
    29  H   10.446271  11.204303  10.712283   9.912008  11.607203
    30  H    8.148102   8.465421   8.631355   8.318567   9.684254
    31  H    6.085742   6.462444   6.277354   5.886543   7.340803
    32  N   10.398392  10.922494  10.891333  10.362593  11.886183
    33  O   10.421379  10.819735  11.001249  10.607444  12.024838
    34  O   11.416220  12.018947  11.895019  11.282119  12.861235
                   21         22         23         24         25
    21  C    0.000000
    22  C    1.398757   0.000000
    23  C    2.428443   1.398052   0.000000
    24  C    2.767001   2.395624   1.394020   0.000000
    25  C    2.428443   2.806913   2.446000   1.394019   0.000000
    26  C    1.398757   2.422000   2.806913   2.395623   1.398051
    27  H    1.086000   2.157850   3.410804   3.853001   3.410804
    28  H    2.158864   1.086298   2.150492   3.381874   3.893212
    29  H    3.421628   2.176109   1.083244   2.148423   3.416380
    30  H    3.421629   3.889818   3.416381   2.148423   1.083245
    31  H    2.158863   3.407224   3.893211   3.381874   2.150493
    32  N    4.247001   3.748031   2.472637   1.480000   2.472637
    33  O    4.935104   4.713383   3.567327   2.318706   2.718207
    34  O    4.935105   4.114751   2.718208   2.318706   3.567328
                   26         27         28         29         30
    26  C    0.000000
    27  H    2.157850   0.000000
    28  H    3.407224   2.487054   0.000000
    29  H    3.889816   4.321495   2.506009   0.000000
    30  H    2.176109   4.321495   4.976087   4.292000   0.000000
    31  H    1.086299   2.487053   4.306000   4.976086   2.506010
    32  N    3.748031   5.333001   4.620298   2.666091   2.666092
    33  O    4.114750   5.999041   5.673028   3.884852   2.393101
    34  O    4.713383   5.999041   4.773632   2.393101   3.884853
                   31         32         33         34
    31  H    0.000000
    32  N    4.620298   0.000000
    33  O    4.773632   1.229080   0.000000
    34  O    5.673029   1.229080   2.182000   0.000000
 Stoichiometry    C12H19NO2
 Framework group  C1[X(C12H19NO2)]
 Deg. of freedom    96
 Full point group                 C1      NOp   1
 Largest Abelian subgroup         C1      NOp   1
 Largest concise Abelian subgroup C1      NOp   1
                         Standard orientation:                         
 ---------------------------------------------------------------------
 Center     Atomic      Atomic             Coordinates (Angstroms)
 Number     Number       Type             X           Y           Z
 ---------------------------------------------------------------------
      1          6           0        3.910504    1.231077    0.276696
      2          6           0        2.517958    1.691593   -0.155419
      3          6           0        2.191775    3.109396    0.314934
      4          1           0        3.983001    1.281426    1.371755
      5          1           0        4.659634    1.930998   -0.118663
      6          1           0        1.771783    0.990239    0.239477
      7          1           0        2.448704    1.639958   -1.249564
      8          1           0        2.914008    3.825449   -0.090342
      9          1           0        2.233241    3.172038    1.407159
     10          1           0        1.191717    3.418366   -0.004881
     11          6           0        4.251195   -0.184386   -0.186039
     12          6           0        5.643742   -0.644902    0.246076
     13          6           0        5.969924   -2.062706   -0.224276
     14          1           0        3.502065   -0.884307    0.209320
     15          1           0        4.178699   -0.234736   -1.281098
     16          1           0        5.712996   -0.593268    1.340221
     17          1           0        6.389917    0.056452   -0.148820
     18          1           0        5.928458   -2.125348   -1.316502
     19          1           0        5.247691   -2.778758    0.180999
     20          1           0        6.969983   -2.371675    0.095538
     21          6           0       -1.248623   -2.022588   -0.035881
     22          6           0       -2.532812   -2.471694    0.289210
     23          6           0       -3.614876   -1.586441    0.292688
     24          6           0       -3.375671   -0.252854   -0.035368
     25          6           0       -2.107919    0.224965   -0.363672
     26          6           0       -1.040643   -0.678063   -0.360711
     27          1           0       -0.413794   -2.717179   -0.036083
     28          1           0       -2.697293   -3.515316    0.541886
     29          1           0       -4.619391   -1.907330    0.540472
     30          1           0       -1.975132    1.271146   -0.611246
     31          1           0       -0.044408   -0.326473   -0.613588
     32          7           0       -4.513377    0.693732   -0.035094
     33          8           0       -4.276318    1.863687   -0.327748
     34          8           0       -5.620627    0.247789    0.257771
 ---------------------------------------------------------------------
 Rotational constants (GHZ):           0.8986262           0.1575557           0.1358073
 Leave Link  202 at Thu May  6 02:30:28 2021, MaxMem=   524288000 cpu:               0.1 elap:               0.1
 (Enter /opt/gaussian/g16_legacy/l301.exe)
 Standard basis: 6-31G(d) (6D, 7F)
 Ernie: Thresh=  0.10000D-02 Tol=  0.10000D-05 Strict=F.
 There are   263 symmetry adapted cartesian basis functions of A   symmetry.
 There are   263 symmetry adapted basis functions of A   symmetry.
   263 basis functions,   496 primitive gaussians,   263 cartesian basis functions
    57 alpha electrons       57 beta electrons
       nuclear repulsion energy       886.9370530625 Hartrees.
 IExCor=    0 DFT=F Ex=HF Corr=None ExCW=0 ScaHFX=  1.000000
 ScaDFX=  1.000000  1.000000  1.000000  1.000000 ScalE2=  1.000000  1.000000
 IRadAn=      5 IRanWt=     -1 IRanGd=            0 ICorTp=0 IEmpDi=  4
 NAtoms=   34 NActive=   34 NUniq=   34 SFac= 1.00D+00 NAtFMM=   60 NAOKFM=F Big=F
 Integral buffers will be    131072 words long.
 Raffenetti 1 integral format.
 Two-electron integral symmetry is turned on.
 Leave Link  301 at Thu May  6 02:30:29 2021, MaxMem=   524288000 cpu:               0.3 elap:               0.3
 (Enter /opt/gaussian/g16_legacy/l302.exe)
 NPDir=0 NMtPBC=     1 NCelOv=     1 NCel=       1 NClECP=     1 NCelD=      1
         NCelK=      1 NCelE2=     1 NClLst=     1 CellRange=     0.0.
 One-electron integrals computed using PRISM.
 One-electron integral symmetry used in STVInt
 NBasis=   263 RedAO= T EigKep=  4.76D-04  NBF=   263
 NBsUse=   263 1.00D-06 EigRej= -1.00D+00 NBFU=   263
 Leave Link  302 at Thu May  6 02:30:29 2021, MaxMem=   524288000 cpu:               0.8 elap:               0.7
 (Enter /opt/gaussian/g16_legacy/l303.exe)
 DipDrv:  MaxL=1.
 Leave Link  303 at Thu May  6 02:30:30 2021, MaxMem=   524288000 cpu:               0.1 elap:               0.1
 (Enter /opt/gaussian/g16_legacy/l401.exe)
 ExpMin= 1.61D-01 ExpMax= 5.48D+03 ExpMxC= 8.25D+02 IAcc=3 IRadAn=         5 AccDes= 0.00D+00
 Harris functional with IExCor=  205 and IRadAn=       5 diagonalized for initial guess.
 HarFok:  IExCor=  205 AccDes= 0.00D+00 IRadAn=         5 IDoV= 1 UseB2=F ITyADJ=14
 ICtDFT=  3500011 ScaDFX=  1.000000  1.000000  1.000000  1.000000
 FoFCou: FMM=F IPFlag=           0 FMFlag=      100000 FMFlg1=           0
         NFxFlg=           0 DoJE=T BraDBF=F KetDBF=T FulRan=T
         wScrn=  0.000000 ICntrl=       500 IOpCl=  0 I1Cent=   200000004 NGrid=           0
         NMat0=    1 NMatS0=      1 NMatT0=    0 NMatD0=    1 NMtDS0=    0 NMtDT0=    0
 Petite list used in FoFCou.
 Harris En= -670.655817856794    
 JPrj=0 DoOrth=F DoCkMO=F.
 Leave Link  401 at Thu May  6 02:30:37 2021, MaxMem=   524288000 cpu:              14.2 elap:               7.3
 (Enter /opt/gaussian/g16_legacy/l502.exe)
 Integral symmetry usage will be decided dynamically.
 Closed shell SCF:
 Using DIIS extrapolation, IDIIS=  1040.
 NGot=   524288000 LenX=   524144919 LenY=   524075309
 Requested convergence on RMS density matrix=1.00D-08 within 128 cycles.
 Requested convergence on MAX density matrix=1.00D-06.
 Requested convergence on             energy=1.00D-06.
 No special actions if energy rises.
 Fock matrices will be formed incrementally for  20 cycles.
 Integral accuracy reduced to 1.0D-05 until final iterations.

 Cycle   1  Pass 0  IDiag  1:
 FoFJK:  IHMeth= 1 ICntrl=       0 DoSepK=F KAlg= 0 I1Cent=           0 FoldK=F
 IRaf= 710000000 NMat=       1 IRICut=       1 DoRegI=T DoRafI=F ISym2E= 0 IDoP0=0 IntGTp=1.
 FoFCou: FMM=F IPFlag=           0 FMFlag=      100000 FMFlg1=           0
         NFxFlg=           0 DoJE=F BraDBF=F KetDBF=F FulRan=T
         wScrn=  0.000000 ICntrl=         0 IOpCl=  0 I1Cent=           0 NGrid=           0
         NMat0=    1 NMatS0=      1 NMatT0=    0 NMatD0=    1 NMtDS0=    0 NMtDT0=    0
 Symmetry not used in FoFCou.
 E= -668.740178835124    
 DIIS: error= 6.50D-02 at cycle   1 NSaved=   1.
 NSaved= 1 IEnMin= 1 EnMin= -668.740178835124     IErMin= 1 ErrMin= 6.50D-02
 ErrMax= 6.50D-02  0.00D+00 EMaxC= 1.00D-01 BMatC= 1.17D+00 BMatP= 1.17D+00
 IDIUse=3 WtCom= 3.50D-01 WtEn= 6.50D-01
 Coeff-Com:  0.100D+01
 Coeff-En:   0.100D+01
 Coeff:      0.100D+01
 Gap=     0.555 Goal=   None    Shift=    0.000
 GapD=    0.555 DampG=2.000 DampE=0.500 DampFc=1.0000 IDamp=-1.
 RMSDP=4.59D-03 MaxDP=1.18D-01              OVMax= 1.51D-01

 Cycle   2  Pass 0  IDiag  1:
 RMSU=  4.47D-03    CP:  9.48D-01
 E= -669.358223476225     Delta-E=       -0.618044641101 Rises=F Damp=F
 DIIS: error= 3.77D-02 at cycle   2 NSaved=   2.
 NSaved= 2 IEnMin= 2 EnMin= -669.358223476225     IErMin= 2 ErrMin= 3.77D-02
 ErrMax= 3.77D-02  0.00D+00 EMaxC= 1.00D-01 BMatC= 2.18D-01 BMatP= 1.17D+00
 IDIUse=3 WtCom= 6.23D-01 WtEn= 3.77D-01
 Coeff-Com:  0.247D+00 0.753D+00
 Coeff-En:   0.000D+00 0.100D+01
 Coeff:      0.154D+00 0.846D+00
 Gap=     0.584 Goal=   None    Shift=    0.000
 RMSDP=1.87D-03 MaxDP=8.81D-02 DE=-6.18D-01 OVMax= 1.26D-01

 Cycle   3  Pass 0  IDiag  1:
 RMSU=  1.48D-03    CP:  9.57D-01  7.48D-01
 E= -669.502738883734     Delta-E=       -0.144515407509 Rises=F Damp=F
 DIIS: error= 2.07D-02 at cycle   3 NSaved=   3.
 NSaved= 3 IEnMin= 3 EnMin= -669.502738883734     IErMin= 3 ErrMin= 2.07D-02
 ErrMax= 2.07D-02  0.00D+00 EMaxC= 1.00D-01 BMatC= 4.25D-02 BMatP= 2.18D-01
 IDIUse=3 WtCom= 7.93D-01 WtEn= 2.07D-01
 Coeff-Com: -0.974D-02 0.288D+00 0.722D+00
 Coeff-En:   0.000D+00 0.000D+00 0.100D+01
 Coeff:     -0.773D-02 0.229D+00 0.779D+00
 Gap=     0.427 Goal=   None    Shift=    0.000
 RMSDP=6.61D-04 MaxDP=3.55D-02 DE=-1.45D-01 OVMax= 5.61D-02

 Cycle   4  Pass 0  IDiag  1:
 RMSU=  4.13D-04    CP:  9.55D-01  8.37D-01  7.76D-01
 E= -669.532344349303     Delta-E=       -0.029605465569 Rises=F Damp=F
 DIIS: error= 7.04D-03 at cycle   4 NSaved=   4.
 NSaved= 4 IEnMin= 4 EnMin= -669.532344349303     IErMin= 4 ErrMin= 7.04D-03
 ErrMax= 7.04D-03  0.00D+00 EMaxC= 1.00D-01 BMatC= 4.08D-03 BMatP= 4.25D-02
 IDIUse=3 WtCom= 9.30D-01 WtEn= 7.04D-02
 Coeff-Com: -0.134D-01 0.470D-01 0.309D+00 0.658D+00
 Coeff-En:   0.000D+00 0.000D+00 0.000D+00 0.100D+01
 Coeff:     -0.124D-01 0.437D-01 0.287D+00 0.682D+00
 Gap=     0.412 Goal=   None    Shift=    0.000
 RMSDP=1.95D-04 MaxDP=1.14D-02 DE=-2.96D-02 OVMax= 1.73D-02

 Cycle   5  Pass 0  IDiag  1:
 RMSU=  9.96D-05    CP:  9.55D-01  8.34D-01  8.61D-01  7.31D-01
 E= -669.535496581172     Delta-E=       -0.003152231869 Rises=F Damp=F
 DIIS: error= 5.80D-04 at cycle   5 NSaved=   5.
 NSaved= 5 IEnMin= 5 EnMin= -669.535496581172     IErMin= 5 ErrMin= 5.80D-04
 ErrMax= 5.80D-04  0.00D+00 EMaxC= 1.00D-01 BMatC= 7.90D-05 BMatP= 4.08D-03
 IDIUse=3 WtCom= 9.94D-01 WtEn= 5.80D-03
 Coeff-Com:  0.210D-02-0.216D-01-0.802D-01-0.112D-01 0.111D+01
 Coeff-En:   0.000D+00 0.000D+00 0.000D+00 0.000D+00 0.100D+01
 Coeff:      0.209D-02-0.214D-01-0.797D-01-0.112D-01 0.111D+01
 Gap=     0.414 Goal=   None    Shift=    0.000
 RMSDP=5.42D-05 MaxDP=2.03D-03 DE=-3.15D-03 OVMax= 4.90D-03

 Cycle   6  Pass 0  IDiag  1:
 RMSU=  2.45D-05    CP:  9.55D-01  8.37D-01  8.72D-01  8.21D-01  1.24D+00
 E= -669.535619663550     Delta-E=       -0.000123082378 Rises=F Damp=F
 DIIS: error= 1.83D-04 at cycle   6 NSaved=   6.
 NSaved= 6 IEnMin= 6 EnMin= -669.535619663550     IErMin= 6 ErrMin= 1.83D-04
 ErrMax= 1.83D-04  0.00D+00 EMaxC= 1.00D-01 BMatC= 5.71D-06 BMatP= 7.90D-05
 IDIUse=3 WtCom= 9.98D-01 WtEn= 1.83D-03
 Coeff-Com:  0.123D-02-0.693D-02-0.342D-01-0.461D-01 0.133D+00 0.953D+00
 Coeff-En:   0.000D+00 0.000D+00 0.000D+00 0.000D+00 0.000D+00 0.100D+01
 Coeff:      0.122D-02-0.692D-02-0.341D-01-0.460D-01 0.133D+00 0.953D+00
 Gap=     0.414 Goal=   None    Shift=    0.000
 RMSDP=1.72D-05 MaxDP=5.28D-04 DE=-1.23D-04 OVMax= 1.65D-03

 Cycle   7  Pass 0  IDiag  1:
 RMSU=  8.66D-06    CP:  9.55D-01  8.38D-01  8.75D-01  8.33D-01  1.36D+00
                    CP:  1.18D+00
 E= -669.535634258156     Delta-E=       -0.000014594606 Rises=F Damp=F
 DIIS: error= 1.18D-04 at cycle   7 NSaved=   7.
 NSaved= 7 IEnMin= 7 EnMin= -669.535634258156     IErMin= 7 ErrMin= 1.18D-04
 ErrMax= 1.18D-04  0.00D+00 EMaxC= 1.00D-01 BMatC= 1.12D-06 BMatP= 5.71D-06
 IDIUse=3 WtCom= 9.99D-01 WtEn= 1.18D-03
 Coeff-Com: -0.258D-03 0.267D-02 0.999D-02 0.263D-02-0.151D+00 0.154D-01
 Coeff-Com:  0.112D+01
 Coeff-En:   0.000D+00 0.000D+00 0.000D+00 0.000D+00 0.000D+00 0.000D+00
 Coeff-En:   0.100D+01
 Coeff:     -0.258D-03 0.266D-02 0.998D-02 0.263D-02-0.151D+00 0.154D-01
 Coeff:      0.112D+01
 Gap=     0.414 Goal=   None    Shift=    0.000
 RMSDP=8.80D-06 MaxDP=5.09D-04 DE=-1.46D-05 OVMax= 1.33D-03

 Initial convergence to 1.0D-05 achieved.  Increase integral accuracy.
 Cycle   8  Pass 1  IDiag  1:
 E= -669.535639806655     Delta-E=       -0.000005548499 Rises=F Damp=F
 DIIS: error= 5.03D-05 at cycle   1 NSaved=   1.
 NSaved= 1 IEnMin= 1 EnMin= -669.535639806655     IErMin= 1 ErrMin= 5.03D-05
 ErrMax= 5.03D-05  0.00D+00 EMaxC= 1.00D-01 BMatC= 3.48D-07 BMatP= 3.48D-07
 IDIUse=1 WtCom= 1.00D+00 WtEn= 0.00D+00
 Coeff-Com:  0.100D+01
 Coeff:      0.100D+01
 Gap=     0.414 Goal=   None    Shift=    0.000
 RMSDP=8.80D-06 MaxDP=5.09D-04 DE=-5.55D-06 OVMax= 5.23D-04

 Cycle   9  Pass 1  IDiag  1:
 RMSU=  1.12D-05    CP:  1.00D+00
 E= -669.535640780016     Delta-E=       -0.000000973361 Rises=F Damp=F
 DIIS: error= 4.20D-05 at cycle   2 NSaved=   2.
 NSaved= 2 IEnMin= 2 EnMin= -669.535640780016     IErMin= 2 ErrMin= 4.20D-05
 ErrMax= 4.20D-05  0.00D+00 EMaxC= 1.00D-01 BMatC= 1.10D-07 BMatP= 3.48D-07
 IDIUse=1 WtCom= 1.00D+00 WtEn= 0.00D+00
 Coeff-Com: -0.683D-02 0.101D+01
 Coeff:     -0.683D-02 0.101D+01
 Gap=     0.414 Goal=   None    Shift=    0.000
 RMSDP=2.29D-06 MaxDP=1.12D-04 DE=-9.73D-07 OVMax= 3.81D-04

 Cycle  10  Pass 1  IDiag  1:
 RMSU=  2.08D-06    CP:  1.00D+00  1.08D+00
 E= -669.535641176745     Delta-E=       -0.000000396729 Rises=F Damp=F
 DIIS: error= 2.34D-05 at cycle   3 NSaved=   3.
 NSaved= 3 IEnMin= 3 EnMin= -669.535641176745     IErMin= 3 ErrMin= 2.34D-05
 ErrMax= 2.34D-05  0.00D+00 EMaxC= 1.00D-01 BMatC= 5.03D-08 BMatP= 1.10D-07
 IDIUse=1 WtCom= 1.00D+00 WtEn= 0.00D+00
 Coeff-Com: -0.374D+00 0.102D+00 0.127D+01
 Coeff:     -0.374D+00 0.102D+00 0.127D+01
 Gap=     0.414 Goal=   None    Shift=    0.000
 RMSDP=2.50D-06 MaxDP=9.47D-05 DE=-3.97D-07 OVMax= 3.77D-04

 Cycle  11  Pass 1  IDiag  1:
 RMSU=  1.43D-06    CP:  1.00D+00  1.17D+00  1.88D+00
 E= -669.535641441841     Delta-E=       -0.000000265096 Rises=F Damp=F
 DIIS: error= 1.04D-05 at cycle   4 NSaved=   4.
 NSaved= 4 IEnMin= 4 EnMin= -669.535641441841     IErMin= 4 ErrMin= 1.04D-05
 ErrMax= 1.04D-05  0.00D+00 EMaxC= 1.00D-01 BMatC= 6.85D-09 BMatP= 5.03D-08
 IDIUse=1 WtCom= 1.00D+00 WtEn= 0.00D+00
 Coeff-Com:  0.994D-02-0.294D+00-0.500D-01 0.133D+01
 Coeff:      0.994D-02-0.294D+00-0.500D-01 0.133D+01
 Gap=     0.414 Goal=   None    Shift=    0.000
 RMSDP=1.43D-06 MaxDP=5.84D-05 DE=-2.65D-07 OVMax= 2.25D-04

 Cycle  12  Pass 1  IDiag  1:
 RMSU=  2.04D-07    CP:  1.00D+00  1.19D+00  2.49D+00  1.39D+00
 E= -669.535641486152     Delta-E=       -0.000000044311 Rises=F Damp=F
 DIIS: error= 1.91D-06 at cycle   5 NSaved=   5.
 NSaved= 5 IEnMin= 5 EnMin= -669.535641486152     IErMin= 5 ErrMin= 1.91D-06
 ErrMax= 1.91D-06  0.00D+00 EMaxC= 1.00D-01 BMatC= 5.71D-10 BMatP= 6.85D-09
 IDIUse=1 WtCom= 1.00D+00 WtEn= 0.00D+00
 Coeff-Com:  0.200D-01-0.118D+00-0.666D-01 0.515D+00 0.649D+00
 Coeff:      0.200D-01-0.118D+00-0.666D-01 0.515D+00 0.649D+00
 Gap=     0.414 Goal=   None    Shift=    0.000
 RMSDP=9.82D-08 MaxDP=3.79D-06 DE=-4.43D-08 OVMax= 1.10D-05

 Cycle  13  Pass 1  IDiag  1:
 RMSU=  7.32D-08    CP:  1.00D+00  1.19D+00  2.52D+00  1.42D+00  1.00D+00
 E= -669.535641486776     Delta-E=       -0.000000000624 Rises=F Damp=F
 DIIS: error= 1.17D-06 at cycle   6 NSaved=   6.
 NSaved= 6 IEnMin= 6 EnMin= -669.535641486776     IErMin= 6 ErrMin= 1.17D-06
 ErrMax= 1.17D-06  0.00D+00 EMaxC= 1.00D-01 BMatC= 3.97D-11 BMatP= 5.71D-10
 IDIUse=1 WtCom= 1.00D+00 WtEn= 0.00D+00
 Coeff-Com: -0.228D-02 0.504D-01 0.105D-01-0.233D+00-0.812D-01 0.126D+01
 Coeff:     -0.228D-02 0.504D-01 0.105D-01-0.233D+00-0.812D-01 0.126D+01
 Gap=     0.414 Goal=   None    Shift=    0.000
 RMSDP=5.77D-08 MaxDP=2.73D-06 DE=-6.24D-10 OVMax= 6.63D-06

 Cycle  14  Pass 1  IDiag  1:
 RMSU=  2.63D-08    CP:  1.00D+00  1.19D+00  2.53D+00  1.43D+00  1.17D+00
                    CP:  1.32D+00
 E= -669.535641486900     Delta-E=       -0.000000000125 Rises=F Damp=F
 DIIS: error= 2.29D-07 at cycle   7 NSaved=   7.
 NSaved= 7 IEnMin= 7 EnMin= -669.535641486900     IErMin= 7 ErrMin= 2.29D-07
 ErrMax= 2.29D-07  0.00D+00 EMaxC= 1.00D-01 BMatC= 7.34D-12 BMatP= 3.97D-11
 IDIUse=1 WtCom= 1.00D+00 WtEn= 0.00D+00
 Coeff-Com: -0.259D-02 0.218D-01 0.991D-02-0.100D+00-0.115D+00 0.293D+00
 Coeff-Com:  0.893D+00
 Coeff:     -0.259D-02 0.218D-01 0.991D-02-0.100D+00-0.115D+00 0.293D+00
 Coeff:      0.893D+00
 Gap=     0.414 Goal=   None    Shift=    0.000
 RMSDP=1.60D-08 MaxDP=6.74D-07 DE=-1.25D-10 OVMax= 1.44D-06

 Cycle  15  Pass 1  IDiag  1:
 RMSU=  9.29D-09    CP:  1.00D+00  1.19D+00  2.53D+00  1.43D+00  1.20D+00
                    CP:  1.44D+00  1.14D+00
 E= -669.535641486902     Delta-E=       -0.000000000002 Rises=F Damp=F
 DIIS: error= 9.37D-08 at cycle   8 NSaved=   8.
 NSaved= 8 IEnMin= 8 EnMin= -669.535641486902     IErMin= 8 ErrMin= 9.37D-08
 ErrMax= 9.37D-08  0.00D+00 EMaxC= 1.00D-01 BMatC= 9.19D-13 BMatP= 7.34D-12
 IDIUse=1 WtCom= 1.00D+00 WtEn= 0.00D+00
 Coeff-Com:  0.201D-03-0.621D-02-0.409D-03 0.277D-01-0.769D-02-0.131D+00
 Coeff-Com:  0.170D-01 0.110D+01
 Coeff:      0.201D-03-0.621D-02-0.409D-03 0.277D-01-0.769D-02-0.131D+00
 Coeff:      0.170D-01 0.110D+01
 Gap=     0.414 Goal=   None    Shift=    0.000
 RMSDP=6.54D-09 MaxDP=3.60D-07 DE=-1.82D-12 OVMax= 6.61D-07

 SCF Done:  E(RHF) =  -669.535641487     A.U. after   15 cycles
            NFock= 15  Conv=0.65D-08     -V/T= 2.0024
 KE= 6.679611029692D+02 PE=-3.336653736492D+03 EE= 1.112219938973D+03
 Leave Link  502 at Thu May  6 02:31:25 2021, MaxMem=   524288000 cpu:              91.8 elap:              47.5
 (Enter /opt/gaussian/g16_legacy/l801.exe)
 ExpMin= 1.61D-01 ExpMax= 5.48D+03 ExpMxC= 8.25D+02 IAcc=3 IRadAn=         5 AccDes= 0.00D+00
 HarFok:  IExCor=  205 AccDes= 0.00D+00 IRadAn=         5 IDoV=-2 UseB2=F ITyADJ=14
 ICtDFT= 12500011 ScaDFX=  1.000000  1.000000  1.000000  1.000000
 Largest valence mixing into a core orbital is  1.97D-04
 Largest core mixing into a valence orbital is  4.00D-05
 Range of M.O.s used for correlation:    16   263
 NBasis=   263 NAE=    57 NBE=    57 NFC=    15 NFV=     0
 NROrb=    248 NOA=    42 NOB=    42 NVA=   206 NVB=   206
 Leave Link  801 at Thu May  6 02:31:27 2021, MaxMem=   524288000 cpu:               2.6 elap:               1.9
 (Enter /opt/gaussian/g16_legacy/l906.exe)
 FulOut=F Deriv=F AODrv=F NAtomX=    34
   MMem=         113  MDisk=          42 MDiskD=          42
  W3Min=     2275476 MinDsk=     2420380 NBas6D=         263
 NBas2D=       35121    NTT=       34716    LW2=     2000000
    MDV=   523950609 MDiskM=       27563 NBas2p=       22935
 Fully direct method using O(OVN) memory.
 IMap=   1   2   3   4   5   6   7   8   9  10  11  12  13  14  15  16  17  18  19  20
 IMap=  21  22  23  24  25  26  27  28  29  30  31  32  33  34  35  36  37  38  39  40
 IMap=  41  42
 JobTyp=1 Pass  1:  I=   1 to  42 NPSUse=  2 ParTrn=T ParDer=T DoDerP=F.
 Spin components of T(2) and E(2):
     alpha-alpha T2 =       0.9488536748D-01 E2=     -0.2718423538D+00
     alpha-beta  T2 =       0.5259058316D+00 E2=     -0.1547443114D+01
     beta-beta   T2 =       0.9488536748D-01 E2=     -0.2718423538D+00
 The integrals were generated   1 times.
 ANorm=    0.1309838374D+01
 E2 =    -0.2091127821D+01 EUMP2 =    -0.67162676930810D+03
 Leave Link  906 at Thu May  6 02:32:22 2021, MaxMem=   524288000 cpu:             109.9 elap:              55.8
 (Enter /opt/gaussian/g16_legacy/l601.exe)
 Copying SCF densities to generalized density rwf, IOpCl= 0 IROHF=0.

 **********************************************************************

            Population analysis using the SCF density.

 **********************************************************************

 Orbital symmetries:
       Occupied  (A) (A) (A) (A) (A) (A) (A) (A) (A) (A) (A) (A)
                 (A) (A) (A) (A) (A) (A) (A) (A) (A) (A) (A) (A)
                 (A) (A) (A) (A) (A) (A) (A) (A) (A) (A) (A) (A)
                 (A) (A) (A) (A) (A) (A) (A) (A) (A) (A) (A) (A)
                 (A) (A) (A) (A) (A) (A) (A) (A) (A)
       Virtual   (A) (A) (A) (A) (A) (A) (A) (A) (A) (A) (A) (A)
                 (A) (A) (A) (A) (A) (A) (A) (A) (A) (A) (A) (A)
                 (A) (A) (A) (A) (A) (A) (A) (A) (A) (A) (A) (A)
                 (A) (A) (A) (A) (A) (A) (A) (A) (A) (A) (A) (A)
                 (A) (A) (A) (A) (A) (A) (A) (A) (A) (A) (A) (A)
                 (A) (A) (A) (A) (A) (A) (A) (A) (A) (A) (A) (A)
                 (A) (A) (A) (A) (A) (A) (A) (A) (A) (A) (A) (A)
                 (A) (A) (A) (A) (A) (A) (A) (A) (A) (A) (A) (A)
                 (A) (A) (A) (A) (A) (A) (A) (A) (A) (A) (A) (A)
                 (A) (A) (A) (A) (A) (A) (A) (A) (A) (A) (A) (A)
                 (A) (A) (A) (A) (A) (A) (A) (A) (A) (A) (A) (A)
                 (A) (A) (A) (A) (A) (A) (A) (A) (A) (A) (A) (A)
                 (A) (A) (A) (A) (A) (A) (A) (A) (A) (A) (A) (A)
                 (A) (A) (A) (A) (A) (A) (A) (A) (A) (A) (A) (A)
                 (A) (A) (A) (A) (A) (A) (A) (A) (A) (A) (A) (A)
                 (A) (A) (A) (A) (A) (A) (A) (A) (A) (A) (A) (A)
                 (A) (A) (A) (A) (A) (A) (A) (A) (A) (A) (A) (A)
                 (A) (A)
 The electronic state is 1-A.
 Alpha  occ. eigenvalues --  -20.60734 -20.60729 -15.85787 -11.31146 -11.27719
 Alpha  occ. eigenvalues --  -11.27706 -11.27453 -11.26734 -11.26672 -11.22542
 Alpha  occ. eigenvalues --  -11.22258 -11.22190 -11.22122 -11.21731 -11.21683
 Alpha  occ. eigenvalues --   -1.59809  -1.39363  -1.19317  -1.09205  -1.08713
 Alpha  occ. eigenvalues --   -1.04718  -1.04263  -0.96679  -0.95550  -0.87694
 Alpha  occ. eigenvalues --   -0.86117  -0.82384  -0.80354  -0.79044  -0.77424
 Alpha  occ. eigenvalues --   -0.72005  -0.71132  -0.70428  -0.65845  -0.64967
 Alpha  occ. eigenvalues --   -0.64720  -0.62111  -0.61618  -0.60051  -0.58307
 Alpha  occ. eigenvalues --   -0.55952  -0.55221  -0.53370  -0.53118  -0.53048
 Alpha  occ. eigenvalues --   -0.52810  -0.50610  -0.48790  -0.48761  -0.48615
 Alpha  occ. eigenvalues --   -0.47374  -0.46555  -0.46485  -0.44770  -0.44518
 Alpha  occ. eigenvalues --   -0.37300  -0.36317
 Alpha virt. eigenvalues --    0.05099   0.11285   0.16547   0.20039   0.22498
 Alpha virt. eigenvalues --    0.23624   0.25155   0.26106   0.26733   0.28444
 Alpha virt. eigenvalues --    0.28952   0.30083   0.30874   0.31368   0.32534
 Alpha virt. eigenvalues --    0.32854   0.33382   0.33732   0.34081   0.34177
 Alpha virt. eigenvalues --    0.35514   0.35791   0.36560   0.37974   0.39269
 Alpha virt. eigenvalues --    0.40368   0.43443   0.44196   0.44836   0.45145
 Alpha virt. eigenvalues --    0.46296   0.47971   0.49311   0.51223   0.56790
 Alpha virt. eigenvalues --    0.67260   0.68421   0.68741   0.69164   0.70528
 Alpha virt. eigenvalues --    0.71556   0.72057   0.74437   0.75749   0.77301
 Alpha virt. eigenvalues --    0.78000   0.78579   0.78949   0.79031   0.79927
 Alpha virt. eigenvalues --    0.80809   0.81772   0.82715   0.83278   0.85880
 Alpha virt. eigenvalues --    0.86182   0.87293   0.87837   0.88192   0.93701
 Alpha virt. eigenvalues --    0.95113   0.95400   0.96675   0.97828   1.00571
 Alpha virt. eigenvalues --    1.00926   1.01919   1.04499   1.04763   1.06554
 Alpha virt. eigenvalues --    1.07001   1.08319   1.08479   1.10169   1.11285
 Alpha virt. eigenvalues --    1.11608   1.15371   1.15762   1.16363   1.16856
 Alpha virt. eigenvalues --    1.17332   1.17922   1.18172   1.19446   1.19771
 Alpha virt. eigenvalues --    1.20332   1.20446   1.20895   1.21542   1.22686
 Alpha virt. eigenvalues --    1.23283   1.23620   1.23829   1.24419   1.26265
 Alpha virt. eigenvalues --    1.27531   1.28340   1.30501   1.31798   1.32388
 Alpha virt. eigenvalues --    1.34358   1.39533   1.41121   1.46753   1.47114
 Alpha virt. eigenvalues --    1.52595   1.53502   1.54955   1.60294   1.65149
 Alpha virt. eigenvalues --    1.65455   1.66569   1.66803   1.67237   1.67838
 Alpha virt. eigenvalues --    1.70349   1.72220   1.72645   1.73332   1.73633
 Alpha virt. eigenvalues --    1.75586   1.78821   1.80496   1.92033   1.97008
 Alpha virt. eigenvalues --    1.99349   1.99877   2.04371   2.04581   2.04810
 Alpha virt. eigenvalues --    2.10096   2.12412   2.12510   2.13148   2.14356
 Alpha virt. eigenvalues --    2.17129   2.21663   2.21723   2.21821   2.24731
 Alpha virt. eigenvalues --    2.25016   2.25475   2.27098   2.27499   2.32879
 Alpha virt. eigenvalues --    2.32916   2.33228   2.35468   2.36185   2.37704
 Alpha virt. eigenvalues --    2.38819   2.42334   2.43006   2.43346   2.44642
 Alpha virt. eigenvalues --    2.45784   2.46897   2.56043   2.56095   2.58161
 Alpha virt. eigenvalues --    2.58641   2.58907   2.59625   2.66158   2.66948
 Alpha virt. eigenvalues --    2.67041   2.70219   2.76185   2.76830   2.79287
 Alpha virt. eigenvalues --    2.81470   2.83534   2.90922   2.91813   2.91993
 Alpha virt. eigenvalues --    2.92650   2.94498   2.97886   2.99976   3.04755
 Alpha virt. eigenvalues --    3.04839   3.07176   3.10667   3.13041   3.17845
 Alpha virt. eigenvalues --    3.23585   3.24578   3.27657   3.43121   3.52940
 Alpha virt. eigenvalues --    3.77052   4.13068   4.28655   4.37871   4.48149
 Alpha virt. eigenvalues --    4.50850   4.52951   4.55159   4.62017   4.71053
 Alpha virt. eigenvalues --    4.72143   4.76729   4.79164   4.87414   4.99130
 Alpha virt. eigenvalues --    5.08975
          Condensed to atoms (all electrons):
               1          2          3          4          5          6
     1  C    5.083761   0.350631  -0.057053   0.396398   0.396801  -0.042939
     2  C    0.350631   5.073280   0.339787  -0.041404  -0.041606   0.395648
     3  C   -0.057053   0.339787   5.095458  -0.002803  -0.002762  -0.039417
     4  H    0.396398  -0.041404  -0.002803   0.562955  -0.030988  -0.003321
     5  H    0.396801  -0.041606  -0.002762  -0.030988   0.561460   0.004519
     6  H   -0.042939   0.395648  -0.039417  -0.003321   0.004519   0.573679
     7  H   -0.043454   0.399702  -0.039583   0.004564  -0.003041  -0.034758
     8  H   -0.003756  -0.038821   0.392127   0.000152   0.002559   0.004223
     9  H   -0.003820  -0.038612   0.391724   0.002597   0.000152  -0.003174
    10  H    0.004394  -0.036150   0.394019  -0.000056  -0.000055  -0.002462
    11  C    0.355157  -0.052060   0.004036  -0.041559  -0.041416  -0.003319
    12  C   -0.051818   0.003931  -0.000083  -0.003177  -0.003173  -0.000050
    13  C    0.004062  -0.000086   0.000001  -0.000051  -0.000051  -0.000000
    14  H   -0.042422  -0.003112  -0.000056  -0.002827   0.004494   0.002234
    15  H   -0.041658  -0.003187  -0.000055   0.004449  -0.002806   0.000186
    16  H   -0.003171  -0.000061  -0.000001   0.002379   0.000232   0.000016
    17  H   -0.003183  -0.000058  -0.000001   0.000231   0.002363  -0.000004
    18  H   -0.000070  -0.000000  -0.000000  -0.000001   0.000013   0.000000
    19  H   -0.000070  -0.000000  -0.000000   0.000013  -0.000001  -0.000002
    20  H   -0.000086   0.000001  -0.000000   0.000001   0.000001   0.000000
    21  C   -0.000000   0.000000   0.000000   0.000000   0.000000   0.000047
    22  C   -0.000000   0.000000  -0.000000   0.000000  -0.000000  -0.000001
    23  C   -0.000000   0.000000   0.000000  -0.000000   0.000000  -0.000000
    24  C   -0.000000   0.000001   0.000000   0.000000   0.000000   0.000001
    25  C   -0.000000   0.000009  -0.000013  -0.000000   0.000000   0.000168
    26  C    0.000026  -0.000871   0.000044  -0.000002  -0.000000   0.000012
    27  H   -0.000000   0.000000   0.000000  -0.000000   0.000000   0.000003
    28  H   -0.000000   0.000000  -0.000000   0.000000   0.000000   0.000000
    29  H    0.000000  -0.000000   0.000000  -0.000000  -0.000000  -0.000000
    30  H    0.000000   0.000005   0.000017  -0.000000   0.000000   0.000013
    31  H   -0.000069   0.000778  -0.000071   0.000006   0.000001   0.001555
    32  N    0.000000  -0.000000  -0.000000  -0.000000  -0.000000  -0.000000
    33  O   -0.000000  -0.000000   0.000000   0.000000   0.000000   0.000000
    34  O    0.000000  -0.000000   0.000000  -0.000000  -0.000000  -0.000000
               7          8          9         10         11         12
     1  C   -0.043454  -0.003756  -0.003820   0.004394   0.355157  -0.051818
     2  C    0.399702  -0.038821  -0.038612  -0.036150  -0.052060   0.003931
     3  C   -0.039583   0.392127   0.391724   0.394019   0.004036  -0.000083
     4  H    0.004564   0.000152   0.002597  -0.000056  -0.041559  -0.003177
     5  H   -0.003041   0.002559   0.000152  -0.000055  -0.041416  -0.003173
     6  H   -0.034758   0.004223  -0.003174  -0.002462  -0.003319  -0.000050
     7  H    0.566109  -0.002946   0.004212  -0.002473  -0.003151  -0.000067
     8  H   -0.002946   0.543268  -0.028666  -0.027058  -0.000065  -0.000001
     9  H    0.004212  -0.028666   0.544164  -0.027203  -0.000065  -0.000001
    10  H   -0.002473  -0.027058  -0.027203   0.536101  -0.000089   0.000001
    11  C   -0.003151  -0.000065  -0.000065  -0.000089   5.085759   0.352760
    12  C   -0.000067  -0.000001  -0.000001   0.000001   0.352760   5.059069
    13  C   -0.000000  -0.000000  -0.000000  -0.000000  -0.057379   0.340350
    14  H    0.000241  -0.000001   0.000014   0.000001   0.394745  -0.041814
    15  H    0.002448   0.000013  -0.000001   0.000001   0.395787  -0.041364
    16  H   -0.000003   0.000000  -0.000002   0.000000  -0.043776   0.399495
    17  H    0.000017  -0.000002   0.000000   0.000000  -0.043714   0.399720
    18  H   -0.000002   0.000000  -0.000000  -0.000000  -0.003831  -0.038914
    19  H    0.000000  -0.000000   0.000000  -0.000000  -0.003889  -0.039102
    20  H    0.000000  -0.000000  -0.000000   0.000000   0.004391  -0.035649
    21  C    0.000001  -0.000000  -0.000000   0.000000  -0.000001   0.000000
    22  C    0.000000   0.000000   0.000000  -0.000000   0.000000  -0.000000
    23  C   -0.000000  -0.000000  -0.000000   0.000000  -0.000000   0.000000
    24  C    0.000000  -0.000000   0.000000   0.000000   0.000000  -0.000000
    25  C   -0.000001   0.000000   0.000000   0.000004   0.000000  -0.000000
    26  C   -0.000079  -0.000000  -0.000003   0.000008  -0.000011   0.000000
    27  H   -0.000000   0.000000  -0.000000   0.000000   0.000001  -0.000000
    28  H   -0.000000   0.000000   0.000000  -0.000000   0.000000  -0.000000
    29  H   -0.000000  -0.000000  -0.000000   0.000000   0.000000   0.000000
    30  H   -0.000003  -0.000000  -0.000001   0.000068  -0.000000   0.000000
    31  H    0.000434   0.000001   0.000007  -0.000004   0.000048  -0.000001
    32  N   -0.000000   0.000000   0.000000  -0.000000  -0.000000   0.000000
    33  O    0.000000  -0.000000   0.000000  -0.000000   0.000000  -0.000000
    34  O   -0.000000  -0.000000  -0.000000  -0.000000  -0.000000   0.000000
              13         14         15         16         17         18
     1  C    0.004062  -0.042422  -0.041658  -0.003171  -0.003183  -0.000070
     2  C   -0.000086  -0.003112  -0.003187  -0.000061  -0.000058  -0.000000
     3  C    0.000001  -0.000056  -0.000055  -0.000001  -0.000001  -0.000000
     4  H   -0.000051  -0.002827   0.004449   0.002379   0.000231  -0.000001
     5  H   -0.000051   0.004494  -0.002806   0.000232   0.002363   0.000013
     6  H   -0.000000   0.002234   0.000186   0.000016  -0.000004   0.000000
     7  H   -0.000000   0.000241   0.002448  -0.000003   0.000017  -0.000002
     8  H   -0.000000  -0.000001   0.000013   0.000000  -0.000002   0.000000
     9  H   -0.000000   0.000014  -0.000001  -0.000002   0.000000  -0.000000
    10  H   -0.000000   0.000001   0.000001   0.000000   0.000000  -0.000000
    11  C   -0.057379   0.394745   0.395787  -0.043776  -0.043714  -0.003831
    12  C    0.340350  -0.041814  -0.041364   0.399495   0.399720  -0.038914
    13  C    5.097442  -0.002868  -0.002839  -0.039769  -0.039653   0.391300
    14  H   -0.002868   0.575914  -0.032198  -0.003019   0.004602   0.000160
    15  H   -0.002839  -0.032198   0.567009   0.004553  -0.002984   0.002631
    16  H   -0.039769  -0.003019   0.004553   0.562091  -0.031354   0.004204
    17  H   -0.039653   0.004602  -0.002984  -0.031354   0.560759  -0.002890
    18  H    0.391300   0.000160   0.002631   0.004204  -0.002890   0.548230
    19  H    0.390934   0.002670   0.000159  -0.002901   0.004214  -0.029353
    20  H    0.394560  -0.000061  -0.000059  -0.002491  -0.002489  -0.027219
    21  C    0.000000  -0.000000   0.000000   0.000000  -0.000000   0.000000
    22  C    0.000000   0.000000   0.000000   0.000000   0.000000   0.000000
    23  C   -0.000000   0.000000  -0.000000  -0.000000  -0.000000  -0.000000
    24  C    0.000000  -0.000000   0.000000   0.000000  -0.000000   0.000000
    25  C   -0.000000   0.000001  -0.000000   0.000000   0.000000   0.000000
    26  C   -0.000000  -0.000013  -0.000003  -0.000000  -0.000000  -0.000000
    27  H    0.000000   0.000012  -0.000000  -0.000000   0.000000  -0.000000
    28  H   -0.000000  -0.000000   0.000000   0.000000  -0.000000   0.000000
    29  H    0.000000  -0.000000  -0.000000  -0.000000  -0.000000  -0.000000
    30  H   -0.000000  -0.000000  -0.000000  -0.000000  -0.000000  -0.000000
    31  H    0.000000   0.000119   0.000016   0.000000   0.000000   0.000000
    32  N   -0.000000  -0.000000  -0.000000  -0.000000  -0.000000  -0.000000
    33  O    0.000000   0.000000   0.000000   0.000000   0.000000  -0.000000
    34  O    0.000000   0.000000  -0.000000   0.000000   0.000000   0.000000
              19         20         21         22         23         24
     1  C   -0.000070  -0.000086  -0.000000  -0.000000  -0.000000  -0.000000
     2  C   -0.000000   0.000001   0.000000   0.000000   0.000000   0.000001
     3  C   -0.000000  -0.000000   0.000000  -0.000000   0.000000   0.000000
     4  H    0.000013   0.000001   0.000000   0.000000  -0.000000   0.000000
     5  H   -0.000001   0.000001   0.000000  -0.000000   0.000000   0.000000
     6  H   -0.000002   0.000000   0.000047  -0.000001  -0.000000   0.000001
     7  H    0.000000   0.000000   0.000001   0.000000  -0.000000   0.000000
     8  H   -0.000000  -0.000000  -0.000000   0.000000  -0.000000  -0.000000
     9  H    0.000000  -0.000000  -0.000000   0.000000  -0.000000   0.000000
    10  H   -0.000000   0.000000   0.000000  -0.000000   0.000000   0.000000
    11  C   -0.003889   0.004391  -0.000001   0.000000  -0.000000   0.000000
    12  C   -0.039102  -0.035649   0.000000  -0.000000   0.000000  -0.000000
    13  C    0.390934   0.394560   0.000000   0.000000  -0.000000   0.000000
    14  H    0.002670  -0.000061  -0.000000   0.000000   0.000000  -0.000000
    15  H    0.000159  -0.000059   0.000000   0.000000  -0.000000   0.000000
    16  H   -0.002901  -0.002491   0.000000   0.000000  -0.000000   0.000000
    17  H    0.004214  -0.002489  -0.000000   0.000000  -0.000000  -0.000000
    18  H   -0.029353  -0.027219   0.000000   0.000000  -0.000000   0.000000
    19  H    0.551478  -0.027372  -0.000000   0.000000   0.000000  -0.000000
    20  H   -0.027372   0.533655  -0.000000  -0.000000   0.000000  -0.000000
    21  C   -0.000000  -0.000000   4.878328   0.542263  -0.045552  -0.028816
    22  C    0.000000  -0.000000   0.542263   4.932397   0.522817  -0.040276
    23  C    0.000000   0.000000  -0.045552   0.522817   4.919415   0.548413
    24  C   -0.000000  -0.000000  -0.028816  -0.040276   0.548413   4.821709
    25  C    0.000000  -0.000000  -0.045400  -0.030128  -0.052907   0.547868
    26  C   -0.000000   0.000000   0.541136  -0.043632  -0.030332  -0.039819
    27  H    0.000000  -0.000000   0.381169  -0.027962   0.002166   0.000222
    28  H   -0.000000  -0.000000  -0.027788   0.382667  -0.027417   0.001567
    29  H   -0.000000   0.000000   0.001938  -0.024123   0.368581  -0.019657
    30  H   -0.000000   0.000000   0.001939  -0.000060   0.002565  -0.019722
    31  H    0.000000  -0.000000  -0.027159   0.002256   0.000207   0.001502
    32  N   -0.000000   0.000000   0.000013   0.001504  -0.044604   0.244189
    33  O   -0.000000   0.000000  -0.000004  -0.000028   0.003712  -0.087920
    34  O   -0.000000   0.000000  -0.000003   0.000774   0.004051  -0.087938
              25         26         27         28         29         30
     1  C   -0.000000   0.000026  -0.000000  -0.000000   0.000000   0.000000
     2  C    0.000009  -0.000871   0.000000   0.000000  -0.000000   0.000005
     3  C   -0.000013   0.000044   0.000000  -0.000000   0.000000   0.000017
     4  H   -0.000000  -0.000002  -0.000000   0.000000  -0.000000  -0.000000
     5  H    0.000000  -0.000000   0.000000   0.000000  -0.000000   0.000000
     6  H    0.000168   0.000012   0.000003   0.000000  -0.000000   0.000013
     7  H   -0.000001  -0.000079  -0.000000  -0.000000  -0.000000  -0.000003
     8  H    0.000000  -0.000000   0.000000   0.000000  -0.000000  -0.000000
     9  H    0.000000  -0.000003  -0.000000   0.000000  -0.000000  -0.000001
    10  H    0.000004   0.000008   0.000000  -0.000000   0.000000   0.000068
    11  C    0.000000  -0.000011   0.000001   0.000000   0.000000  -0.000000
    12  C   -0.000000   0.000000  -0.000000  -0.000000   0.000000   0.000000
    13  C   -0.000000  -0.000000   0.000000  -0.000000   0.000000  -0.000000
    14  H    0.000001  -0.000013   0.000012  -0.000000  -0.000000  -0.000000
    15  H   -0.000000  -0.000003  -0.000000   0.000000  -0.000000  -0.000000
    16  H    0.000000  -0.000000  -0.000000   0.000000  -0.000000  -0.000000
    17  H    0.000000  -0.000000   0.000000  -0.000000  -0.000000  -0.000000
    18  H    0.000000  -0.000000  -0.000000   0.000000  -0.000000  -0.000000
    19  H    0.000000  -0.000000   0.000000  -0.000000  -0.000000  -0.000000
    20  H   -0.000000   0.000000  -0.000000  -0.000000   0.000000   0.000000
    21  C   -0.045400   0.541136   0.381169  -0.027788   0.001938   0.001939
    22  C   -0.030128  -0.043632  -0.027962   0.382667  -0.024123  -0.000060
    23  C   -0.052907  -0.030332   0.002166  -0.027417   0.368581   0.002565
    24  C    0.547868  -0.039819   0.000222   0.001567  -0.019657  -0.019722
    25  C    4.920888   0.522152   0.002157   0.000193   0.002571   0.368419
    26  C    0.522152   4.944774  -0.027820   0.002358  -0.000070  -0.023920
    27  H    0.002157  -0.027820   0.446810  -0.001201  -0.000071  -0.000071
    28  H    0.000193   0.002358  -0.001201   0.447705  -0.001116   0.000007
    29  H    0.002571  -0.000070  -0.000071  -0.001116   0.392834  -0.000075
    30  H    0.368419  -0.023920  -0.000071   0.000007  -0.000075   0.392744
    31  H   -0.026494   0.379013  -0.001023  -0.000092   0.000007  -0.001036
    32  N   -0.044527   0.001488   0.000002  -0.000049  -0.005356  -0.005341
    33  O    0.004026   0.000773   0.000000   0.000000   0.000048   0.009039
    34  O    0.003719  -0.000029   0.000000  -0.000001   0.009042   0.000048
              31         32         33         34
     1  C   -0.000069   0.000000  -0.000000   0.000000
     2  C    0.000778  -0.000000  -0.000000  -0.000000
     3  C   -0.000071  -0.000000   0.000000   0.000000
     4  H    0.000006  -0.000000   0.000000  -0.000000
     5  H    0.000001  -0.000000   0.000000  -0.000000
     6  H    0.001555  -0.000000   0.000000  -0.000000
     7  H    0.000434  -0.000000   0.000000  -0.000000
     8  H    0.000001   0.000000  -0.000000  -0.000000
     9  H    0.000007   0.000000   0.000000  -0.000000
    10  H   -0.000004  -0.000000  -0.000000  -0.000000
    11  C    0.000048  -0.000000   0.000000  -0.000000
    12  C   -0.000001   0.000000  -0.000000   0.000000
    13  C    0.000000  -0.000000   0.000000   0.000000
    14  H    0.000119  -0.000000   0.000000   0.000000
    15  H    0.000016  -0.000000   0.000000  -0.000000
    16  H    0.000000  -0.000000   0.000000   0.000000
    17  H    0.000000  -0.000000   0.000000   0.000000
    18  H    0.000000  -0.000000  -0.000000   0.000000
    19  H    0.000000  -0.000000  -0.000000  -0.000000
    20  H   -0.000000   0.000000   0.000000   0.000000
    21  C   -0.027159   0.000013  -0.000004  -0.000003
    22  C    0.002256   0.001504  -0.000028   0.000774
    23  C    0.000207  -0.044604   0.003712   0.004051
    24  C    0.001502   0.244189  -0.087920  -0.087938
    25  C   -0.026494  -0.044527   0.004026   0.003719
    26  C    0.379013   0.001488   0.000773  -0.000029
    27  H   -0.001023   0.000002   0.000000   0.000000
    28  H   -0.000092  -0.000049   0.000000  -0.000001
    29  H    0.000007  -0.005356   0.000048   0.009042
    30  H   -0.001036  -0.005341   0.009039   0.000048
    31  H    0.436768  -0.000050  -0.000001   0.000000
    32  N   -0.000050   5.734804   0.314918   0.314901
    33  O   -0.000001   0.314918   8.303568  -0.087607
    34  O    0.000000   0.314901  -0.087607   8.303654
 Mulliken charges:
               1
     1  C   -0.297660
     2  C   -0.307743
     3  C   -0.475316
     4  H    0.152444
     5  H    0.153304
     6  H    0.147145
     7  H    0.151835
     8  H    0.158975
     9  H    0.158676
    10  H    0.160953
    11  C   -0.298358
    12  C   -0.300114
    13  C   -0.475952
    14  H    0.143183
    15  H    0.149903
    16  H    0.153577
    17  H    0.154425
    18  H    0.155740
    19  H    0.153223
    20  H    0.162817
    21  C   -0.172110
    22  C   -0.218470
    23  C   -0.171113
    24  C    0.158676
    25  C   -0.172704
    26  C   -0.225180
    27  H    0.225607
    28  H    0.223166
    29  H    0.275448
    30  H    0.275369
    31  H    0.233283
    32  N    0.488109
    33  O   -0.460526
    34  O   -0.460610
 Sum of Mulliken charges =  -0.00000
 Mulliken charges with hydrogens summed into heavy atoms:
               1
     1  C    0.008088
     2  C   -0.008763
     3  C    0.003287
    11  C   -0.005272
    12  C    0.007888
    13  C   -0.004172
    21  C    0.053497
    22  C    0.004697
    23  C    0.104335
    24  C    0.158676
    25  C    0.102664
    26  C    0.008103
    32  N    0.488109
    33  O   -0.460526
    34  O   -0.460610
 Electronic spatial extent (au):  <R**2>=           7661.2199
 Charge=             -0.0000 electrons
 Dipole moment (field-independent basis, Debye):
    X=              4.2185    Y=             -3.2429    Z=              0.0281  Tot=              5.3210
 Quadrupole moment (field-independent basis, Debye-Ang):
   XX=           -119.4882   YY=            -91.1176   ZZ=            -94.5425
   XY=             13.7577   XZ=             -1.2551   YZ=             -1.5872
 Traceless Quadrupole moment (field-independent basis, Debye-Ang):
   XX=            -17.7721   YY=             10.5985   ZZ=              7.1736
   XY=             13.7577   XZ=             -1.2551   YZ=             -1.5872
 Octapole moment (field-independent basis, Debye-Ang**2):
  XXX=            135.6176  YYY=            -22.2084  ZZZ=              0.0881  XYY=            -13.6539
  XXY=            -53.1735  XXZ=             -0.0593  XZZ=            -10.2188  YZZ=              7.4984
  YYZ=              5.8188  XYZ=              0.2951
 Hexadecapole moment (field-independent basis, Debye-Ang**3):
 XXXX=          -9534.9426 YYYY=          -1586.8091 ZZZZ=           -176.7882 XXXY=            273.3988
 XXXZ=              0.7402 YYYX=             62.5757 YYYZ=            -26.3113 ZZZX=             -0.4708
 ZZZY=             -0.4123 XXYY=          -1725.8135 XXZZ=          -1435.2333 YYZZ=           -308.0139
 XXYZ=            -23.3471 YYXZ=            -25.3093 ZZXY=            -21.2811
 N-N= 8.869370530625D+02 E-N=-3.336653733816D+03  KE= 6.679611029692D+02
 Leave Link  601 at Thu May  6 02:32:23 2021, MaxMem=   524288000 cpu:               0.6 elap:               0.5
 (Enter /opt/gaussian/g16_legacy/l9999.exe)
 1\1\GINC-TRUENO91\SP\RMP2-FC\6-31G(d)\C12H19N1O2\JRAMOS\06-May-2021\0\
 \#p 6-31g* mp2\\Input file generated by CHIRIPA (05-May-2021 14:53:12)
 \\0,1\C,0,-0.666,-0.374,0.\C,0,-1.882,0.553,0.\C,0,-3.207,-0.21,0.\H,0
 ,-0.713,-1.03,-0.88\H,0,-0.713,-1.029,0.881\H,0,-1.832,1.207,-0.88\H,0
 ,-1.832,1.207,0.88\H,0,-3.283,-0.85,0.885\H,0,-3.283,-0.85,-0.885\H,0,
 -4.063,0.472,0.\C,0,0.666,0.374,0.\C,0,1.882,-0.553,0.\C,0,3.207,0.21,
 0.\H,0,0.713,1.029,-0.881\H,0,0.713,1.03,0.88\H,0,1.832,-1.207,-0.88\H
 ,0,1.832,-1.207,0.88\H,0,3.283,0.85,0.885\H,0,3.283,0.85,-0.885\H,0,4.
 063,-0.472,0.\C,0,-1.402903,4.93879,-2.920937\C,0,-1.884918,5.860975,-
 3.855687\C,0,-3.253979,6.128738,-3.948008\C,0,-4.116637,5.453226,-3.08
 6151\C,0,-3.667051,4.528956,-2.144404\C,0,-2.293937,4.276891,-2.06978\
 H,0,-0.337809,4.736883,-2.856093\H,0,-1.195252,6.376499,-4.517986\H,0,
 -3.654191,6.837832,-4.662454\H,0,-4.379009,4.030693,-1.497667\H,0,-1.9
 22433,3.560204,-1.342876\N,0,-5.568146,5.728386,-3.17452\O,0,-6.307494
 ,5.120058,-2.403846\O,0,-5.939006,6.547173,-4.012785\\Version=EM64L-G1
 6RevA.03\State=1-A\HF=-669.5356415\MP2=-671.6267693\RMSD=6.542e-09\PG=
 C01 [X(C12H19N1O2)]\\@


 "I COULD HAVE DONE IT IN A MUCH MORE COMPLICATED WAY"
 SAID THE RED QUEEN, IMMENSELY PROUD.

                                      -- LEWIS CARROLL
 Job cpu time:       0 days  0 hours  3 minutes 41.3 seconds.
 Elapsed time:       0 days  0 hours  1 minutes 54.8 seconds.
 File lengths (MBytes):  RWF=     43 Int=      0 D2E=      0 Chk=      6 Scr=      1
 Normal termination of Gaussian 16 at Thu May  6 02:32:23 2021.
