 Entering Gaussian System, Link 0=/opt/gaussian/g16_legacy/g16
 Input=gaussian_03539_2_1.com
 Output=gaussian_03539_2_1.log
 Initial command:
 /opt/gaussian/g16_legacy/l1.exe "/scratch-local/jramos/2596130/Gau-5331.inp" -scrdir="/scratch-local/jramos/2596130/"
 Entering Link 1 = /opt/gaussian/g16_legacy/l1.exe PID=      5333.
  
 Copyright (c) 1988,1990,1992,1993,1995,1998,2003,2009,2016,
            Gaussian, Inc.  All Rights Reserved.
  
 This is part of the Gaussian(R) 16 program.  It is based on
 the Gaussian(R) 09 system (copyright 2009, Gaussian, Inc.),
 the Gaussian(R) 03 system (copyright 2003, Gaussian, Inc.),
 the Gaussian(R) 98 system (copyright 1998, Gaussian, Inc.),
 the Gaussian(R) 94 system (copyright 1995, Gaussian, Inc.),
 the Gaussian 92(TM) system (copyright 1992, Gaussian, Inc.),
 the Gaussian 90(TM) system (copyright 1990, Gaussian, Inc.),
 the Gaussian 88(TM) system (copyright 1988, Gaussian, Inc.),
 the Gaussian 86(TM) system (copyright 1986, Carnegie Mellon
 University), and the Gaussian 82(TM) system (copyright 1983,
 Carnegie Mellon University). Gaussian is a federally registered
 trademark of Gaussian, Inc.
  
 This software contains proprietary and confidential information,
 including trade secrets, belonging to Gaussian, Inc.
  
 This software is provided under written license and may be
 used, copied, transmitted, or stored only in accord with that
 written license.
  
 The following legend is applicable only to US Government
 contracts under FAR:
  
                    RESTRICTED RIGHTS LEGEND
  
 Use, reproduction and disclosure by the US Government is
 subject to restrictions as set forth in subparagraphs (a)
 and (c) of the Commercial Computer Software - Restricted
 Rights clause in FAR 52.227-19.
  
 Gaussian, Inc.
 340 Quinnipiac St., Bldg. 40, Wallingford CT 06492
  
  
 ---------------------------------------------------------------
 Warning -- This program may not be used in any manner that
 competes with the business of Gaussian, Inc. or will provide
 assistance to any competitor of Gaussian, Inc.  The licensee
 of this program is prohibited from giving any competitor of
 Gaussian, Inc. access to this program.  By using this program,
 the user acknowledges that Gaussian, Inc. is engaged in the
 business of creating and licensing software in the field of
 computational chemistry and represents and warrants to the
 licensee that it is not a competitor of Gaussian, Inc. and that
 it will not use this program in any manner prohibited above.
 ---------------------------------------------------------------
  

 Cite this work as:
 Gaussian 16, Revision A.03,
 M. J. Frisch, G. W. Trucks, H. B. Schlegel, G. E. Scuseria, 
 M. A. Robb, J. R. Cheeseman, G. Scalmani, V. Barone, 
 G. A. Petersson, H. Nakatsuji, X. Li, M. Caricato, A. V. Marenich, 
 J. Bloino, B. G. Janesko, R. Gomperts, B. Mennucci, H. P. Hratchian, 
 J. V. Ortiz, A. F. Izmaylov, J. L. Sonnenberg, D. Williams-Young, 
 F. Ding, F. Lipparini, F. Egidi, J. Goings, B. Peng, A. Petrone, 
 T. Henderson, D. Ranasinghe, V. G. Zakrzewski, J. Gao, N. Rega, 
 G. Zheng, W. Liang, M. Hada, M. Ehara, K. Toyota, R. Fukuda, 
 J. Hasegawa, M. Ishida, T. Nakajima, Y. Honda, O. Kitao, H. Nakai, 
 T. Vreven, K. Throssell, J. A. Montgomery, Jr., J. E. Peralta, 
 F. Ogliaro, M. J. Bearpark, J. J. Heyd, E. N. Brothers, K. N. Kudin, 
 V. N. Staroverov, T. A. Keith, R. Kobayashi, J. Normand, 
 K. Raghavachari, A. P. Rendell, J. C. Burant, S. S. Iyengar, 
 J. Tomasi, M. Cossi, J. M. Millam, M. Klene, C. Adamo, R. Cammi, 
 J. W. Ochterski, R. L. Martin, K. Morokuma, O. Farkas, 
 J. B. Foresman, and D. J. Fox, Gaussian, Inc., Wallingford CT, 2016.
 
 ******************************************
 Gaussian 16:  EM64L-G16RevA.03 25-Dec-2016
                 6-May-2021 
 ******************************************
 %chk=gaussian_03539_2_1.chk
 %nproc=2
 Will use up to    2 processors via shared memory.
 %mem=4000Mb
 -------------
 #p 6-31g* mp2
 -------------
 1/38=1,172=1/1;
 2/12=2,17=6,18=5,40=1/2;
 3/5=1,6=6,7=1,11=9,25=1,30=1/1,2,3;
 4//1;
 5/5=2,38=5/2;
 8/10=2/1;
 9/16=-3/6;
 6/7=2,8=2,9=2,10=2/1;
 99/5=1,9=1/99;
 Leave Link    1 at Thu May  6 09:26:43 2021, MaxMem=   524288000 cpu:               0.1 elap:               0.1
 (Enter /opt/gaussian/g16_legacy/l101.exe)
 ------------------------------------------------------
 Input file generated by CHIRIPA (05-May-2021 14:55:23)
 ------------------------------------------------------
 Symbolic Z-matrix:
 Charge =  0 Multiplicity = 1
 C                     1.91414   0.        0. 
 C                     1.21414   1.211     0. 
 C                    -0.18386   1.223     0. 
 C                    -0.85286   0.        0. 
 C                    -0.18386  -1.223     0. 
 C                     1.21414  -1.211     0. 
 H                     3.00014   0.        0. 
 H                     1.75514   2.153     0. 
 H                    -0.75086   2.146     0. 
 H                    -0.75086  -2.146     0. 
 H                     1.75514  -2.153     0. 
 N                    -2.33286   0.        0. 
 O                    -2.89886  -1.091     0. 
 O                    -2.89886   1.091     0. 
 C                    -4.66725   4.63234   4.76341 
 C                    -4.05269   3.61902   3.79723 
 C                    -4.67956   3.67543   2.40379 
 H                    -5.74791   4.44928   4.83826 
 H                    -4.54941   5.64274   4.34795 
 H                    -4.17042   2.61096   4.21503 
 H                    -2.97334   3.80439   3.72481 
 H                    -4.54955   4.66903   1.96282 
 H                    -5.75343   3.46882   2.45582 
 H                    -4.22542   2.94284   1.72931 
 C                    -4.05099   4.58808   6.16054 
 C                    -4.66554   5.6014    7.12672 
 C                    -4.03868   5.54499   8.52015 
 H                    -4.16882   3.57768   6.576 
 H                    -2.97032   4.77114   6.08569 
 H                    -5.7449    5.41603   7.19913 
 H                    -4.54781   6.60946   6.70891 
 H                    -2.9648    5.7516    8.46812 
 H                    -4.16869   4.55139   8.96113 
 H                    -4.49282   6.27758   9.19463 
 
 ITRead=  0  0  0  0  0  0  0  0  0  0  0  0  0  0  0  0  0  0  0  0
 ITRead=  0  0  0  0  0  0  0  0  0  0  0  0  0  0
 MicOpt= -1 -1 -1 -1 -1 -1 -1 -1 -1 -1 -1 -1 -1 -1 -1 -1 -1 -1 -1 -1
 MicOpt= -1 -1 -1 -1 -1 -1 -1 -1 -1 -1 -1 -1 -1 -1
 NAtoms=     34 NQM=       34 NQMF=       0 NMMI=      0 NMMIF=      0
                NMic=       0 NMicF=      0.
                    Isotopes and Nuclear Properties:
 (Nuclear quadrupole moments (NQMom) in fm**2, nuclear magnetic moments (NMagM)
  in nuclear magnetons)

  Atom         1           2           3           4           5           6           7           8           9          10
 IAtWgt=          12          12          12          12          12          12           1           1           1           1
 AtmWgt=  12.0000000  12.0000000  12.0000000  12.0000000  12.0000000  12.0000000   1.0078250   1.0078250   1.0078250   1.0078250
 NucSpn=           0           0           0           0           0           0           1           1           1           1
 AtZEff=  -0.0000000  -0.0000000  -0.0000000  -0.0000000  -0.0000000  -0.0000000  -0.0000000  -0.0000000  -0.0000000  -0.0000000
 NQMom=    0.0000000   0.0000000   0.0000000   0.0000000   0.0000000   0.0000000   0.0000000   0.0000000   0.0000000   0.0000000
 NMagM=    0.0000000   0.0000000   0.0000000   0.0000000   0.0000000   0.0000000   2.7928460   2.7928460   2.7928460   2.7928460
 AtZNuc=   6.0000000   6.0000000   6.0000000   6.0000000   6.0000000   6.0000000   1.0000000   1.0000000   1.0000000   1.0000000

  Atom        11          12          13          14          15          16          17          18          19          20
 IAtWgt=           1          14          16          16          12          12          12           1           1           1
 AtmWgt=   1.0078250  14.0030740  15.9949146  15.9949146  12.0000000  12.0000000  12.0000000   1.0078250   1.0078250   1.0078250
 NucSpn=           1           2           0           0           0           0           0           1           1           1
 AtZEff=  -0.0000000  -0.0000000  -0.0000000  -0.0000000  -0.0000000  -0.0000000  -0.0000000  -0.0000000  -0.0000000  -0.0000000
 NQMom=    0.0000000   2.0440000   0.0000000   0.0000000   0.0000000   0.0000000   0.0000000   0.0000000   0.0000000   0.0000000
 NMagM=    2.7928460   0.4037610   0.0000000   0.0000000   0.0000000   0.0000000   0.0000000   2.7928460   2.7928460   2.7928460
 AtZNuc=   1.0000000   7.0000000   8.0000000   8.0000000   6.0000000   6.0000000   6.0000000   1.0000000   1.0000000   1.0000000

  Atom        21          22          23          24          25          26          27          28          29          30
 IAtWgt=           1           1           1           1          12          12          12           1           1           1
 AtmWgt=   1.0078250   1.0078250   1.0078250   1.0078250  12.0000000  12.0000000  12.0000000   1.0078250   1.0078250   1.0078250
 NucSpn=           1           1           1           1           0           0           0           1           1           1
 AtZEff=  -0.0000000  -0.0000000  -0.0000000  -0.0000000  -0.0000000  -0.0000000  -0.0000000  -0.0000000  -0.0000000  -0.0000000
 NQMom=    0.0000000   0.0000000   0.0000000   0.0000000   0.0000000   0.0000000   0.0000000   0.0000000   0.0000000   0.0000000
 NMagM=    2.7928460   2.7928460   2.7928460   2.7928460   0.0000000   0.0000000   0.0000000   2.7928460   2.7928460   2.7928460
 AtZNuc=   1.0000000   1.0000000   1.0000000   1.0000000   6.0000000   6.0000000   6.0000000   1.0000000   1.0000000   1.0000000

  Atom        31          32          33          34
 IAtWgt=           1           1           1           1
 AtmWgt=   1.0078250   1.0078250   1.0078250   1.0078250
 NucSpn=           1           1           1           1
 AtZEff=  -0.0000000  -0.0000000  -0.0000000  -0.0000000
 NQMom=    0.0000000   0.0000000   0.0000000   0.0000000
 NMagM=    2.7928460   2.7928460   2.7928460   2.7928460
 AtZNuc=   1.0000000   1.0000000   1.0000000   1.0000000
 Leave Link  101 at Thu May  6 09:26:50 2021, MaxMem=   524288000 cpu:               2.1 elap:               4.8
 (Enter /opt/gaussian/g16_legacy/l202.exe)
                          Input orientation:                          
 ---------------------------------------------------------------------
 Center     Atomic      Atomic             Coordinates (Angstroms)
 Number     Number       Type             X           Y           Z
 ---------------------------------------------------------------------
      1          6           0        1.914143    0.000000    0.000000
      2          6           0        1.214143    1.211000    0.000000
      3          6           0       -0.183857    1.223000    0.000000
      4          6           0       -0.852857    0.000000    0.000000
      5          6           0       -0.183857   -1.223000    0.000000
      6          6           0        1.214143   -1.211000    0.000000
      7          1           0        3.000143    0.000000    0.000000
      8          1           0        1.755143    2.153000    0.000000
      9          1           0       -0.750857    2.146000    0.000000
     10          1           0       -0.750857   -2.146000    0.000000
     11          1           0        1.755143   -2.153000    0.000000
     12          7           0       -2.332857    0.000000    0.000000
     13          8           0       -2.898857   -1.091000    0.000000
     14          8           0       -2.898857    1.091000    0.000000
     15          6           0       -4.667248    4.632336    4.763405
     16          6           0       -4.052693    3.619022    3.797226
     17          6           0       -4.679558    3.675433    2.403794
     18          1           0       -5.747912    4.449285    4.838257
     19          1           0       -4.549415    5.642736    4.347950
     20          1           0       -4.170421    2.610958    4.215033
     21          1           0       -2.973335    3.804386    3.724812
     22          1           0       -4.549545    4.669031    1.962817
     23          1           0       -5.753433    3.468823    2.455824
     24          1           0       -4.225416    2.942843    1.729311
     25          6           0       -4.050986    4.588084    6.160542
     26          6           0       -4.665541    5.601398    7.126721
     27          6           0       -4.038676    5.544987    8.520152
     28          1           0       -4.168819    3.577684    6.575997
     29          1           0       -2.970322    4.771135    6.085689
     30          1           0       -5.744899    5.416034    7.199134
     31          1           0       -4.547813    6.609462    6.708913
     32          1           0       -2.964801    5.751598    8.468122
     33          1           0       -4.168688    4.551389    8.961129
     34          1           0       -4.492818    6.277577    9.194635
 ---------------------------------------------------------------------
                    Distance matrix (angstroms):
                    1          2          3          4          5
     1  C    0.000000
     2  C    1.398757   0.000000
     3  C    2.428443   1.398052   0.000000
     4  C    2.767000   2.395623   1.394019   0.000000
     5  C    2.428443   2.806913   2.446000   1.394019   0.000000
     6  C    1.398757   2.422000   2.806913   2.395623   1.398052
     7  H    1.086000   2.157850   3.410804   3.853000   3.410804
     8  H    2.158863   1.086299   2.150493   3.381874   3.893212
     9  H    3.421628   2.176109   1.083244   2.148423   3.416380
    10  H    3.421628   3.889817   3.416380   2.148423   1.083244
    11  H    2.158863   3.407224   3.893212   3.381874   2.150493
    12  N    4.247000   3.748030   2.472636   1.480000   2.472636
    13  O    4.935104   4.713382   3.567327   2.318706   2.718207
    14  O    4.935104   4.114750   2.718207   2.318706   3.567327
    15  C    9.352180   8.305801   7.376611   7.661471   8.779281
    16  C    7.944770   6.925103   5.926866   6.144526   7.268562
    17  C    7.922369   6.825494   5.657206   5.825004   7.069950
    18  H   10.095145   9.075540   8.048376   8.195513   9.302809
    19  H    9.618873   8.471337   7.582667   8.025564   9.225026
    20  H    7.848919   6.979965   5.965369   5.965722   6.954023
    21  H    7.227380   6.175342   5.321557   5.730969   6.850549
    22  H    8.211685   7.002195   5.898052   6.270407   7.591305
    23  H    8.766728   7.725021   6.488064   6.486867   7.685340
    24  H    7.024601   5.964780   4.720442   4.798437   6.056316
    25  C    9.725511   8.779439   8.014409   8.320506   9.309976
    26  C   11.200806  10.229195   9.489258   9.833736  10.837345
    27  C   11.780319  10.907270  10.302048  10.653136  11.543754
    28  H    9.646035   8.821633   8.041654   8.187745   9.064779
    29  H    9.146439   8.198775   7.575570   8.017668   8.984968
    30  H   11.824630  10.859931  10.016699  10.251489  11.261860
    31  H   11.421531  10.361131   9.647155  10.116679  11.198263
    32  H   11.339932  10.478058   9.997547  10.452286  11.317586
    33  H   11.748098  10.974284  10.356587  10.583558  11.380873
    34  H   12.845172  11.949097  11.342716  11.713181  12.624069
                    6          7          8          9         10
     6  C    0.000000
     7  H    2.157850   0.000000
     8  H    3.407224   2.487053   0.000000
     9  H    3.889817   4.321495   2.506010   0.000000
    10  H    2.176109   4.321495   4.976087   4.292000   0.000000
    11  H    1.086299   2.487053   4.306000   4.976087   2.506010
    12  N    3.748030   5.333000   4.620298   2.666091   2.666091
    13  O    4.114750   5.999040   5.673028   3.884852   2.393100
    14  O    4.713382   5.999040   4.773632   2.393100   3.884852
    15  C    9.561661  10.145809   8.371633   6.649061   9.163732
    16  C    8.092441   8.789695   7.092186   5.243171   7.652224
    17  C    8.024411   8.846742   7.035723   4.853049   7.423072
    18  H   10.194006  10.942273   9.218324   7.326965   9.585253
    19  H    9.954746  10.379835   8.416079   6.749880   9.695263
    20  H    7.833734   8.717832   7.286188   5.447578   7.217241
    21  H    7.520857   8.001876   6.241779   4.643692   7.363472
    22  H    8.464485   9.091220   7.066269   4.964712   8.045330
    23  H    8.745223   9.730822   8.008819   5.727713   7.910947
    24  H    7.059301   7.991217   6.275464   3.962075   6.399953
    25  C    9.965101  10.426946   8.808691   7.403168   9.705206
    26  C   11.479094  11.871332  10.193468   8.834856  11.231076
    27  C   12.075945  12.364661  10.847438   9.744530  11.939599
    28  H    9.754564  10.365210   8.964752   7.548240   9.364121
    29  H    9.504278   9.769636   8.137583   6.989490   9.476729
    30  H   12.007222  12.555346  10.896126   9.352064  11.573778
    31  H   11.805477  12.069223  10.227259   8.907799  11.665526
    32  H   11.732452  11.847807  10.341028   9.466307  11.789092
    33  H   11.936575  12.345409  11.006629   9.887836  11.697796
    34  H   13.160148  13.419901  11.857085  10.752372  13.019226
                   11         12         13         14         15
    11  H    0.000000
    12  N    4.620298   0.000000
    13  O    4.773632   1.229080   0.000000
    14  O    5.673028   1.229080   2.182000   0.000000
    15  C   10.487036   7.042581   7.653353   6.193407   0.000000
    16  C    9.025859   5.520333   6.159105   4.705439   1.529047
    17  C    9.008564   4.979361   5.627433   3.953279   2.546287
    18  H   11.103816   7.407258   7.888004   6.542471   1.098611
    19  H   10.928203   7.460447   8.183655   6.507481   1.098816
    20  H    8.693337   5.287745   5.752206   4.657644   2.152561
    21  H    8.468954   5.362629   6.151794   4.608930   2.152561
    22  H    9.494306   5.528671   6.305187   4.402241   2.803300
    23  H    9.696117   5.455653   5.913684   4.453506   2.803300
    24  H    8.045198   3.902899   4.584993   2.860000   3.500761
    25  C   10.821535   7.871135   8.457640   7.176996   1.527655
    26  C   12.334749   9.359873   9.934763   8.617135   2.554280
    27  C   12.861584  10.307749  10.859489   9.681435   3.916782
    28  H   10.544088   7.708068   8.164138   7.144238   2.155507
    29  H   10.359019   7.759233   8.450168   7.112251   2.155750
    30  H   12.859566   9.633431  10.112813   8.867548   2.776381
    31  H   12.708954   9.674737  10.345322   8.842058   2.776381
    32  H   12.508782  10.256185  10.887359   9.666158   4.228002
    33  H   12.662639  10.217008  10.665405   9.689613   4.228002
    34  H   13.951808  11.340843  11.890246  10.676264   4.730015
                   16         17         18         19         20
    16  C    0.000000
    17  C    1.528985   0.000000
    18  H    2.155655   2.768905   0.000000
    19  H    2.155330   2.768928   1.761000   0.000000
    20  H    1.097550   2.161692   2.501266   3.058264   0.000000
    21  H    1.097551   2.161692   3.058420   2.500372   1.760001
    22  H    2.171275   1.094806   3.122904   2.576230   3.074390
    23  H    2.171275   1.094807   2.576300   3.123411   2.517275
    24  H    2.182504   1.094468   3.775302   3.775138   2.508383
    25  C    2.554280   3.916783   2.155751   2.155507   2.776382
    26  C    3.923128   5.100547   2.781359   2.781504   4.203071
    27  C    5.100546   6.427737   4.204569   4.204483   5.211519
    28  H    2.781504   4.204484   2.504588   3.061615   2.551218
    29  H    2.781358   4.204569   3.061810   2.504588   3.099348
    30  H    4.203069   5.211519   2.551147   3.099972   4.387743
    31  H    4.203070   5.211519   3.099348   2.551217   4.727568
    32  H    5.248682   6.635279   4.755801   4.415730   5.422721
    33  H    5.248681   6.635279   4.416158   4.755777   5.127446
    34  H    6.032715   7.274720   4.888348   4.888413   6.192291
                   21         22         23         24         25
    21  H    0.000000
    22  H    2.517275   0.000000
    23  H    3.074391   1.770000   0.000000
    24  H    2.508383   1.771810   1.771810   0.000000
    25  C    2.776382   4.228003   4.228003   4.730016   0.000000
    26  C    4.203070   5.248682   5.248682   6.032716   1.529047
    27  C    5.211519   6.635279   6.635279   7.274720   2.546286
    28  H    3.099973   4.755778   4.415731   4.888414   1.098816
    29  H    2.551147   4.416157   4.755801   4.888348   1.098611
    30  H    4.727567   5.422721   5.127445   6.192291   2.152560
    31  H    4.387743   5.127446   5.422721   6.192291   2.152561
    32  H    5.127445   6.782504   7.009655   7.408767   2.803300
    33  H    5.422721   7.009655   6.782504   7.408767   2.803299
    34  H    6.192291   7.408767   7.408767   8.180649   3.500760
                   26         27         28         29         30
    26  C    0.000000
    27  C    1.528984   0.000000
    28  H    2.155330   2.768927   0.000000
    29  H    2.155656   2.768905   1.761000   0.000000
    30  H    1.097551   2.161692   2.500372   3.058420   0.000000
    31  H    1.097550   2.161692   3.058264   2.501266   1.760001
    32  H    2.171275   1.094807   3.123411   2.576301   3.074391
    33  H    2.171275   1.094806   2.576229   3.122903   2.517276
    34  H    2.182503   1.094468   3.775137   3.775302   2.508383
                   31         32         33         34
    31  H    0.000000
    32  H    2.517275   0.000000
    33  H    3.074391   1.770000   0.000000
    34  H    2.508383   1.771810   1.771810   0.000000
 Stoichiometry    C12H19NO2
 Framework group  C1[X(C12H19NO2)]
 Deg. of freedom    96
 Full point group                 C1      NOp   1
 Largest Abelian subgroup         C1      NOp   1
 Largest concise Abelian subgroup C1      NOp   1
                         Standard orientation:                         
 ---------------------------------------------------------------------
 Center     Atomic      Atomic             Coordinates (Angstroms)
 Number     Number       Type             X           Y           Z
 ---------------------------------------------------------------------
      1          6           0       -4.684928    2.268540    0.322501
      2          6           0       -3.688248    1.836126    1.203506
      3          6           0       -3.046770    0.610161    1.003347
      4          6           0       -3.428592   -0.161535   -0.093005
      5          6           0       -4.417923    0.241847   -0.988436
      6          6           0       -5.045948    1.471426   -0.768734
      7          1           0       -5.178018    3.222303    0.485580
      8          1           0       -3.405829    2.453095    2.051818
      9          1           0       -2.271922    0.251185    1.669805
     10          1           0       -4.677887   -0.395096   -1.825180
     11          1           0       -5.819641    1.804706   -1.454567
     12          7           0       -2.756610   -1.461322   -0.315248
     13          8           0       -3.111203   -2.122684   -1.288645
     14          8           0       -1.888040   -1.794122    0.488162
     15          6           0        4.198883   -0.651801    0.435582
     16          6           0        2.682701   -0.703214    0.244440
     17          6           0        2.033944   -1.877741    0.977513
     18          1           0        4.638775   -1.594465    0.082277
     19          1           0        4.424063   -0.584749    1.508984
     20          1           0        2.460412   -0.768755   -0.828363
     21          1           0        2.246387    0.239758    0.598065
     22          1           0        2.226501   -1.814107    2.053372
     23          1           0        2.441742   -2.828350    0.618839
     24          1           0        0.949972   -1.895362    0.827328
     25          6           0        4.861836    0.516926   -0.291259
     26          6           0        6.378018    0.568340   -0.100118
     27          6           0        7.026774    1.742866   -0.833190
     28          1           0        4.636656    0.449875   -1.364662
     29          1           0        4.421943    1.459590    0.062046
     30          1           0        6.814331   -0.374633   -0.453742
     31          1           0        6.600307    0.633880    0.972686
     32          1           0        6.618977    2.693475   -0.474515
     33          1           0        6.834217    1.679233   -1.909049
     34          1           0        8.110746    1.760487   -0.683005
 ---------------------------------------------------------------------
 Rotational constants (GHZ):           0.8823815           0.1319924           0.1222602
 Leave Link  202 at Thu May  6 09:27:02 2021, MaxMem=   524288000 cpu:               7.3 elap:               9.3
 (Enter /opt/gaussian/g16_legacy/l301.exe)
 Standard basis: 6-31G(d) (6D, 7F)
 Ernie: Thresh=  0.10000D-02 Tol=  0.10000D-05 Strict=F.
 There are   263 symmetry adapted cartesian basis functions of A   symmetry.
 There are   263 symmetry adapted basis functions of A   symmetry.
   263 basis functions,   496 primitive gaussians,   263 cartesian basis functions
    57 alpha electrons       57 beta electrons
       nuclear repulsion energy       871.8631029318 Hartrees.
 IExCor=    0 DFT=F Ex=HF Corr=None ExCW=0 ScaHFX=  1.000000
 ScaDFX=  1.000000  1.000000  1.000000  1.000000 ScalE2=  1.000000  1.000000
 IRadAn=      5 IRanWt=     -1 IRanGd=            0 ICorTp=0 IEmpDi=  4
 NAtoms=   34 NActive=   34 NUniq=   34 SFac= 1.00D+00 NAtFMM=   60 NAOKFM=F Big=F
 Integral buffers will be    131072 words long.
 Raffenetti 1 integral format.
 Two-electron integral symmetry is turned on.
 Leave Link  301 at Thu May  6 09:27:08 2021, MaxMem=   524288000 cpu:               3.3 elap:               3.8
 (Enter /opt/gaussian/g16_legacy/l302.exe)
 NPDir=0 NMtPBC=     1 NCelOv=     1 NCel=       1 NClECP=     1 NCelD=      1
         NCelK=      1 NCelE2=     1 NClLst=     1 CellRange=     0.0.
 One-electron integrals computed using PRISM.
 One-electron integral symmetry used in STVInt
 NBasis=   263 RedAO= T EigKep=  4.82D-04  NBF=   263
 NBsUse=   263 1.00D-06 EigRej= -1.00D+00 NBFU=   263
 Leave Link  302 at Thu May  6 09:27:15 2021, MaxMem=   524288000 cpu:               4.5 elap:               6.9
 (Enter /opt/gaussian/g16_legacy/l303.exe)
 DipDrv:  MaxL=1.
 Leave Link  303 at Thu May  6 09:27:15 2021, MaxMem=   524288000 cpu:               0.3 elap:               0.4
 (Enter /opt/gaussian/g16_legacy/l401.exe)
 ExpMin= 1.61D-01 ExpMax= 5.48D+03 ExpMxC= 8.25D+02 IAcc=3 IRadAn=         5 AccDes= 0.00D+00
 Harris functional with IExCor=  205 and IRadAn=       5 diagonalized for initial guess.
 HarFok:  IExCor=  205 AccDes= 0.00D+00 IRadAn=         5 IDoV= 1 UseB2=F ITyADJ=14
 ICtDFT=  3500011 ScaDFX=  1.000000  1.000000  1.000000  1.000000
 FoFCou: FMM=F IPFlag=           0 FMFlag=      100000 FMFlg1=           0
         NFxFlg=           0 DoJE=T BraDBF=F KetDBF=T FulRan=T
         wScrn=  0.000000 ICntrl=       500 IOpCl=  0 I1Cent=   200000004 NGrid=           0
         NMat0=    1 NMatS0=      1 NMatT0=    0 NMatD0=    1 NMtDS0=    0 NMtDT0=    0
 Petite list used in FoFCou.
 Harris En= -670.657836059707    
 JPrj=0 DoOrth=F DoCkMO=F.
 Leave Link  401 at Thu May  6 09:27:23 2021, MaxMem=   524288000 cpu:              12.9 elap:               7.5
 (Enter /opt/gaussian/g16_legacy/l502.exe)
 Integral symmetry usage will be decided dynamically.
 Closed shell SCF:
 Using DIIS extrapolation, IDIIS=  1040.
 NGot=   524288000 LenX=   524144919 LenY=   524075309
 Requested convergence on RMS density matrix=1.00D-08 within 128 cycles.
 Requested convergence on MAX density matrix=1.00D-06.
 Requested convergence on             energy=1.00D-06.
 No special actions if energy rises.
 Fock matrices will be formed incrementally for  20 cycles.
 Integral accuracy reduced to 1.0D-05 until final iterations.

 Cycle   1  Pass 0  IDiag  1:
 FoFJK:  IHMeth= 1 ICntrl=       0 DoSepK=F KAlg= 0 I1Cent=           0 FoldK=F
 IRaf= 650000000 NMat=       1 IRICut=       1 DoRegI=T DoRafI=F ISym2E= 0 IDoP0=0 IntGTp=1.
 FoFCou: FMM=F IPFlag=           0 FMFlag=      100000 FMFlg1=           0
         NFxFlg=           0 DoJE=F BraDBF=F KetDBF=F FulRan=T
         wScrn=  0.000000 ICntrl=         0 IOpCl=  0 I1Cent=           0 NGrid=           0
         NMat0=    1 NMatS0=      1 NMatT0=    0 NMatD0=    1 NMtDS0=    0 NMtDT0=    0
 Symmetry not used in FoFCou.
 E= -668.738940828643    
 DIIS: error= 6.72D-02 at cycle   1 NSaved=   1.
 NSaved= 1 IEnMin= 1 EnMin= -668.738940828643     IErMin= 1 ErrMin= 6.72D-02
 ErrMax= 6.72D-02  0.00D+00 EMaxC= 1.00D-01 BMatC= 1.18D+00 BMatP= 1.18D+00
 IDIUse=3 WtCom= 3.28D-01 WtEn= 6.72D-01
 Coeff-Com:  0.100D+01
 Coeff-En:   0.100D+01
 Coeff:      0.100D+01
 Gap=     0.557 Goal=   None    Shift=    0.000
 GapD=    0.557 DampG=2.000 DampE=0.500 DampFc=1.0000 IDamp=-1.
 RMSDP=4.59D-03 MaxDP=1.12D-01              OVMax= 1.52D-01

 Cycle   2  Pass 0  IDiag  1:
 RMSU=  4.47D-03    CP:  9.48D-01
 E= -669.358822125258     Delta-E=       -0.619881296615 Rises=F Damp=F
 DIIS: error= 2.53D-02 at cycle   2 NSaved=   2.
 NSaved= 2 IEnMin= 2 EnMin= -669.358822125258     IErMin= 2 ErrMin= 2.53D-02
 ErrMax= 2.53D-02  0.00D+00 EMaxC= 1.00D-01 BMatC= 2.18D-01 BMatP= 1.18D+00
 IDIUse=3 WtCom= 7.47D-01 WtEn= 2.53D-01
 Coeff-Com:  0.246D+00 0.754D+00
 Coeff-En:   0.000D+00 0.100D+01
 Coeff:      0.184D+00 0.816D+00
 Gap=     0.557 Goal=   None    Shift=    0.000
 RMSDP=1.79D-03 MaxDP=7.76D-02 DE=-6.20D-01 OVMax= 1.21D-01

 Cycle   3  Pass 0  IDiag  1:
 RMSU=  1.42D-03    CP:  9.57D-01  7.58D-01
 E= -669.509691112584     Delta-E=       -0.150868987327 Rises=F Damp=F
 DIIS: error= 1.17D-02 at cycle   3 NSaved=   3.
 NSaved= 3 IEnMin= 3 EnMin= -669.509691112584     IErMin= 3 ErrMin= 1.17D-02
 ErrMax= 1.17D-02  0.00D+00 EMaxC= 1.00D-01 BMatC= 3.42D-02 BMatP= 2.18D-01
 IDIUse=3 WtCom= 8.83D-01 WtEn= 1.17D-01
 Coeff-Com: -0.939D-02 0.262D+00 0.747D+00
 Coeff-En:   0.000D+00 0.000D+00 0.100D+01
 Coeff:     -0.829D-02 0.231D+00 0.777D+00
 Gap=     0.425 Goal=   None    Shift=    0.000
 RMSDP=5.79D-04 MaxDP=3.15D-02 DE=-1.51D-01 OVMax= 4.84D-02

 Cycle   4  Pass 0  IDiag  1:
 RMSU=  3.95D-04    CP:  9.56D-01  8.32D-01  8.17D-01
 E= -669.533898003053     Delta-E=       -0.024206890469 Rises=F Damp=F
 DIIS: error= 3.32D-03 at cycle   4 NSaved=   4.
 NSaved= 4 IEnMin= 4 EnMin= -669.533898003053     IErMin= 4 ErrMin= 3.32D-03
 ErrMax= 3.32D-03  0.00D+00 EMaxC= 1.00D-01 BMatC= 2.67D-03 BMatP= 3.42D-02
 IDIUse=3 WtCom= 9.67D-01 WtEn= 3.32D-02
 Coeff-Com: -0.132D-01 0.426D-01 0.288D+00 0.683D+00
 Coeff-En:   0.000D+00 0.000D+00 0.000D+00 0.100D+01
 Coeff:     -0.128D-01 0.412D-01 0.278D+00 0.693D+00
 Gap=     0.412 Goal=   None    Shift=    0.000
 RMSDP=1.66D-04 MaxDP=7.20D-03 DE=-2.42D-02 OVMax= 1.36D-02

 Cycle   5  Pass 0  IDiag  1:
 RMSU=  9.70D-05    CP:  9.55D-01  8.36D-01  8.85D-01  7.69D-01
 E= -669.536091559295     Delta-E=       -0.002193556242 Rises=F Damp=F
 DIIS: error= 3.81D-04 at cycle   5 NSaved=   5.
 NSaved= 5 IEnMin= 5 EnMin= -669.536091559295     IErMin= 5 ErrMin= 3.81D-04
 ErrMax= 3.81D-04  0.00D+00 EMaxC= 1.00D-01 BMatC= 5.59D-05 BMatP= 2.67D-03
 IDIUse=3 WtCom= 9.96D-01 WtEn= 3.81D-03
 Coeff-Com:  0.200D-02-0.189D-01-0.752D-01-0.381D-01 0.113D+01
 Coeff-En:   0.000D+00 0.000D+00 0.000D+00 0.000D+00 0.100D+01
 Coeff:      0.199D-02-0.188D-01-0.749D-01-0.379D-01 0.113D+01
 Gap=     0.414 Goal=   None    Shift=    0.000
 RMSDP=5.32D-05 MaxDP=1.08D-03 DE=-2.19D-03 OVMax= 4.66D-03

 Cycle   6  Pass 0  IDiag  1:
 RMSU=  2.48D-05    CP:  9.55D-01  8.38D-01  8.99D-01  8.53D-01  1.26D+00
 E= -669.536199925603     Delta-E=       -0.000108366308 Rises=F Damp=F
 DIIS: error= 2.16D-04 at cycle   6 NSaved=   6.
 NSaved= 6 IEnMin= 6 EnMin= -669.536199925603     IErMin= 6 ErrMin= 2.16D-04
 ErrMax= 2.16D-04  0.00D+00 EMaxC= 1.00D-01 BMatC= 5.96D-06 BMatP= 5.59D-05
 IDIUse=3 WtCom= 9.98D-01 WtEn= 2.16D-03
 Coeff-Com:  0.127D-02-0.654D-02-0.342D-01-0.543D-01 0.145D+00 0.949D+00
 Coeff-En:   0.000D+00 0.000D+00 0.000D+00 0.000D+00 0.000D+00 0.100D+01
 Coeff:      0.127D-02-0.653D-02-0.341D-01-0.541D-01 0.145D+00 0.949D+00
 Gap=     0.413 Goal=   None    Shift=    0.000
 RMSDP=1.75D-05 MaxDP=4.31D-04 DE=-1.08D-04 OVMax= 1.67D-03

 Cycle   7  Pass 0  IDiag  1:
 RMSU=  8.84D-06    CP:  9.55D-01  8.38D-01  9.02D-01  8.66D-01  1.39D+00
                    CP:  1.18D+00
 E= -669.536215077026     Delta-E=       -0.000015151423 Rises=F Damp=F
 DIIS: error= 1.11D-04 at cycle   7 NSaved=   7.
 NSaved= 7 IEnMin= 7 EnMin= -669.536215077026     IErMin= 7 ErrMin= 1.11D-04
 ErrMax= 1.11D-04  0.00D+00 EMaxC= 1.00D-01 BMatC= 1.17D-06 BMatP= 5.96D-06
 IDIUse=3 WtCom= 9.99D-01 WtEn= 1.11D-03
 Coeff-Com: -0.234D-03 0.228D-02 0.891D-02 0.590D-02-0.150D+00 0.216D-01
 Coeff-Com:  0.111D+01
 Coeff-En:   0.000D+00 0.000D+00 0.000D+00 0.000D+00 0.000D+00 0.000D+00
 Coeff-En:   0.100D+01
 Coeff:     -0.234D-03 0.228D-02 0.890D-02 0.589D-02-0.149D+00 0.216D-01
 Coeff:      0.111D+01
 Gap=     0.413 Goal=   None    Shift=    0.000
 RMSDP=8.84D-06 MaxDP=2.65D-04 DE=-1.52D-05 OVMax= 1.32D-03

 Initial convergence to 1.0D-05 achieved.  Increase integral accuracy.
 Cycle   8  Pass 1  IDiag  1:
 E= -669.536218337216     Delta-E=       -0.000003260191 Rises=F Damp=F
 DIIS: error= 7.08D-05 at cycle   1 NSaved=   1.
 NSaved= 1 IEnMin= 1 EnMin= -669.536218337216     IErMin= 1 ErrMin= 7.08D-05
 ErrMax= 7.08D-05  0.00D+00 EMaxC= 1.00D-01 BMatC= 3.72D-07 BMatP= 3.72D-07
 IDIUse=1 WtCom= 1.00D+00 WtEn= 0.00D+00
 Coeff-Com:  0.100D+01
 Coeff:      0.100D+01
 Gap=     0.414 Goal=   None    Shift=    0.000
 RMSDP=8.84D-06 MaxDP=2.65D-04 DE=-3.26D-06 OVMax= 5.24D-04

 Cycle   9  Pass 1  IDiag  1:
 RMSU=  9.06D-06    CP:  1.00D+00
 E= -669.536219351168     Delta-E=       -0.000001013951 Rises=F Damp=F
 DIIS: error= 4.23D-05 at cycle   2 NSaved=   2.
 NSaved= 2 IEnMin= 2 EnMin= -669.536219351168     IErMin= 2 ErrMin= 4.23D-05
 ErrMax= 4.23D-05  0.00D+00 EMaxC= 1.00D-01 BMatC= 1.42D-07 BMatP= 3.72D-07
 IDIUse=1 WtCom= 1.00D+00 WtEn= 0.00D+00
 Coeff-Com:  0.150D+00 0.850D+00
 Coeff:      0.150D+00 0.850D+00
 Gap=     0.414 Goal=   None    Shift=    0.000
 RMSDP=2.10D-06 MaxDP=5.28D-05 DE=-1.01D-06 OVMax= 3.23D-04

 Cycle  10  Pass 1  IDiag  1:
 RMSU=  1.95D-06    CP:  1.00D+00  1.09D+00
 E= -669.536219734452     Delta-E=       -0.000000383284 Rises=F Damp=F
 DIIS: error= 3.15D-05 at cycle   3 NSaved=   3.
 NSaved= 3 IEnMin= 3 EnMin= -669.536219734452     IErMin= 3 ErrMin= 3.15D-05
 ErrMax= 3.15D-05  0.00D+00 EMaxC= 1.00D-01 BMatC= 6.62D-08 BMatP= 1.42D-07
 IDIUse=1 WtCom= 1.00D+00 WtEn= 0.00D+00
 Coeff-Com: -0.431D+00 0.143D+00 0.129D+01
 Coeff:     -0.431D+00 0.143D+00 0.129D+01
 Gap=     0.414 Goal=   None    Shift=    0.000
 RMSDP=2.76D-06 MaxDP=7.23D-05 DE=-3.83D-07 OVMax= 3.90D-04

 Cycle  11  Pass 1  IDiag  1:
 RMSU=  1.74D-06    CP:  1.00D+00  1.22D+00  1.89D+00
 E= -669.536220060827     Delta-E=       -0.000000326375 Rises=F Damp=F
 DIIS: error= 1.18D-05 at cycle   4 NSaved=   4.
 NSaved= 4 IEnMin= 4 EnMin= -669.536220060827     IErMin= 4 ErrMin= 1.18D-05
 ErrMax= 1.18D-05  0.00D+00 EMaxC= 1.00D-01 BMatC= 9.94D-09 BMatP= 6.62D-08
 IDIUse=1 WtCom= 1.00D+00 WtEn= 0.00D+00
 Coeff-Com: -0.880D-01-0.210D+00 0.124D+00 0.117D+01
 Coeff:     -0.880D-01-0.210D+00 0.124D+00 0.117D+01
 Gap=     0.414 Goal=   None    Shift=    0.000
 RMSDP=1.43D-06 MaxDP=3.61D-05 DE=-3.26D-07 OVMax= 2.04D-04

 Cycle  12  Pass 1  IDiag  1:
 RMSU=  3.56D-07    CP:  1.00D+00  1.27D+00  2.47D+00  1.41D+00
 E= -669.536220114992     Delta-E=       -0.000000054165 Rises=F Damp=F
 DIIS: error= 3.10D-06 at cycle   5 NSaved=   5.
 NSaved= 5 IEnMin= 5 EnMin= -669.536220114992     IErMin= 5 ErrMin= 3.10D-06
 ErrMax= 3.10D-06  0.00D+00 EMaxC= 1.00D-01 BMatC= 1.44D-09 BMatP= 9.94D-09
 IDIUse=1 WtCom= 1.00D+00 WtEn= 0.00D+00
 Coeff-Com:  0.248D-01-0.973D-01-0.122D+00 0.444D+00 0.751D+00
 Coeff:      0.248D-01-0.973D-01-0.122D+00 0.444D+00 0.751D+00
 Gap=     0.414 Goal=   None    Shift=    0.000
 RMSDP=2.77D-07 MaxDP=6.92D-06 DE=-5.42D-08 OVMax= 4.64D-05

 Cycle  13  Pass 1  IDiag  1:
 RMSU=  9.93D-08    CP:  1.00D+00  1.27D+00  2.57D+00  1.50D+00  8.41D-01
 E= -669.536220117679     Delta-E=       -0.000000002687 Rises=F Damp=F
 DIIS: error= 4.87D-07 at cycle   6 NSaved=   6.
 NSaved= 6 IEnMin= 6 EnMin= -669.536220117679     IErMin= 6 ErrMin= 4.87D-07
 ErrMax= 4.87D-07  0.00D+00 EMaxC= 1.00D-01 BMatC= 4.48D-11 BMatP= 1.44D-09
 IDIUse=1 WtCom= 1.00D+00 WtEn= 0.00D+00
 Coeff-Com: -0.566D-04 0.299D-01 0.189D-01-0.150D+00-0.172D+00 0.127D+01
 Coeff:     -0.566D-04 0.299D-01 0.189D-01-0.150D+00-0.172D+00 0.127D+01
 Gap=     0.414 Goal=   None    Shift=    0.000
 RMSDP=5.86D-08 MaxDP=1.32D-06 DE=-2.69D-09 OVMax= 6.01D-06

 Cycle  14  Pass 1  IDiag  1:
 RMSU=  2.84D-08    CP:  1.00D+00  1.27D+00  2.58D+00  1.51D+00  9.06D-01
                    CP:  1.37D+00
 E= -669.536220117847     Delta-E=       -0.000000000168 Rises=F Damp=F
 DIIS: error= 2.97D-07 at cycle   7 NSaved=   7.
 NSaved= 7 IEnMin= 7 EnMin= -669.536220117847     IErMin= 7 ErrMin= 2.97D-07
 ErrMax= 2.97D-07  0.00D+00 EMaxC= 1.00D-01 BMatC= 7.16D-12 BMatP= 4.48D-11
 IDIUse=1 WtCom= 1.00D+00 WtEn= 0.00D+00
 Coeff-Com: -0.314D-02 0.170D-01 0.187D-01-0.817D-01-0.133D+00 0.237D+00
 Coeff-Com:  0.945D+00
 Coeff:     -0.314D-02 0.170D-01 0.187D-01-0.817D-01-0.133D+00 0.237D+00
 Coeff:      0.945D+00
 Gap=     0.414 Goal=   None    Shift=    0.000
 RMSDP=1.95D-08 MaxDP=5.93D-07 DE=-1.68D-10 OVMax= 2.35D-06

 Cycle  15  Pass 1  IDiag  1:
 RMSU=  9.98D-09    CP:  1.00D+00  1.27D+00  2.58D+00  1.52D+00  9.13D-01
                    CP:  1.49D+00  1.14D+00
 E= -669.536220117860     Delta-E=       -0.000000000013 Rises=F Damp=F
 DIIS: error= 7.97D-08 at cycle   8 NSaved=   8.
 NSaved= 8 IEnMin= 8 EnMin= -669.536220117860     IErMin= 8 ErrMin= 7.97D-08
 ErrMax= 7.97D-08  0.00D+00 EMaxC= 1.00D-01 BMatC= 1.14D-12 BMatP= 7.16D-12
 IDIUse=1 WtCom= 1.00D+00 WtEn= 0.00D+00
 Coeff-Com: -0.167D-03-0.273D-02-0.663D-03 0.137D-01 0.717D-02-0.133D+00
 Coeff-Com:  0.796D-01 0.104D+01
 Coeff:     -0.167D-03-0.273D-02-0.663D-03 0.137D-01 0.717D-02-0.133D+00
 Coeff:      0.796D-01 0.104D+01
 Gap=     0.414 Goal=   None    Shift=    0.000
 RMSDP=6.72D-09 MaxDP=2.83D-07 DE=-1.32D-11 OVMax= 5.85D-07

 SCF Done:  E(RHF) =  -669.536220118     A.U. after   15 cycles
            NFock= 15  Conv=0.67D-08     -V/T= 2.0024
 KE= 6.679566203962D+02 PE=-3.307055945412D+03 EE= 1.097700001966D+03
 Leave Link  502 at Thu May  6 09:28:07 2021, MaxMem=   524288000 cpu:              83.6 elap:              44.2
 (Enter /opt/gaussian/g16_legacy/l801.exe)
 ExpMin= 1.61D-01 ExpMax= 5.48D+03 ExpMxC= 8.25D+02 IAcc=3 IRadAn=         5 AccDes= 0.00D+00
 HarFok:  IExCor=  205 AccDes= 0.00D+00 IRadAn=         5 IDoV=-2 UseB2=F ITyADJ=14
 ICtDFT= 12500011 ScaDFX=  1.000000  1.000000  1.000000  1.000000
 Largest valence mixing into a core orbital is  1.98D-04
 Largest core mixing into a valence orbital is  4.00D-05
 Range of M.O.s used for correlation:    16   263
 NBasis=   263 NAE=    57 NBE=    57 NFC=    15 NFV=     0
 NROrb=    248 NOA=    42 NOB=    42 NVA=   206 NVB=   206
 Leave Link  801 at Thu May  6 09:28:09 2021, MaxMem=   524288000 cpu:               2.1 elap:               1.4
 (Enter /opt/gaussian/g16_legacy/l906.exe)
 FulOut=F Deriv=F AODrv=F NAtomX=    34
   MMem=         113  MDisk=          42 MDiskD=          42
  W3Min=     2275476 MinDsk=     2420380 NBas6D=         263
 NBas2D=       35121    NTT=       34716    LW2=     2000000
    MDV=   523967458 MDiskM=       27564 NBas2p=       21241
 Fully direct method using O(OVN) memory.
 IMap=   1   2   3   4   5   6   7   8   9  10  11  12  13  14  15  16  17  18  19  20
 IMap=  21  22  23  24  25  26  27  28  29  30  31  32  33  34  35  36  37  38  39  40
 IMap=  41  42
 JobTyp=1 Pass  1:  I=   1 to  42 NPSUse=  2 ParTrn=T ParDer=T DoDerP=F.
 Spin components of T(2) and E(2):
     alpha-alpha T2 =       0.9482220246D-01 E2=     -0.2717334849D+00
     alpha-beta  T2 =       0.5257831143D+00 E2=     -0.1547227476D+01
     beta-beta   T2 =       0.9482220246D-01 E2=     -0.2717334849D+00
 The integrals were generated   1 times.
 ANorm=    0.1309743303D+01
 E2 =    -0.2090694446D+01 EUMP2 =    -0.67162691456398D+03
 Leave Link  906 at Thu May  6 09:29:08 2021, MaxMem=   524288000 cpu:             117.8 elap:              59.2
 (Enter /opt/gaussian/g16_legacy/l601.exe)
 Copying SCF densities to generalized density rwf, IOpCl= 0 IROHF=0.

 **********************************************************************

            Population analysis using the SCF density.

 **********************************************************************

 Orbital symmetries:
       Occupied  (A) (A) (A) (A) (A) (A) (A) (A) (A) (A) (A) (A)
                 (A) (A) (A) (A) (A) (A) (A) (A) (A) (A) (A) (A)
                 (A) (A) (A) (A) (A) (A) (A) (A) (A) (A) (A) (A)
                 (A) (A) (A) (A) (A) (A) (A) (A) (A) (A) (A) (A)
                 (A) (A) (A) (A) (A) (A) (A) (A) (A)
       Virtual   (A) (A) (A) (A) (A) (A) (A) (A) (A) (A) (A) (A)
                 (A) (A) (A) (A) (A) (A) (A) (A) (A) (A) (A) (A)
                 (A) (A) (A) (A) (A) (A) (A) (A) (A) (A) (A) (A)
                 (A) (A) (A) (A) (A) (A) (A) (A) (A) (A) (A) (A)
                 (A) (A) (A) (A) (A) (A) (A) (A) (A) (A) (A) (A)
                 (A) (A) (A) (A) (A) (A) (A) (A) (A) (A) (A) (A)
                 (A) (A) (A) (A) (A) (A) (A) (A) (A) (A) (A) (A)
                 (A) (A) (A) (A) (A) (A) (A) (A) (A) (A) (A) (A)
                 (A) (A) (A) (A) (A) (A) (A) (A) (A) (A) (A) (A)
                 (A) (A) (A) (A) (A) (A) (A) (A) (A) (A) (A) (A)
                 (A) (A) (A) (A) (A) (A) (A) (A) (A) (A) (A) (A)
                 (A) (A) (A) (A) (A) (A) (A) (A) (A) (A) (A) (A)
                 (A) (A) (A) (A) (A) (A) (A) (A) (A) (A) (A) (A)
                 (A) (A) (A) (A) (A) (A) (A) (A) (A) (A) (A) (A)
                 (A) (A) (A) (A) (A) (A) (A) (A) (A) (A) (A) (A)
                 (A) (A) (A) (A) (A) (A) (A) (A) (A) (A) (A) (A)
                 (A) (A) (A) (A) (A) (A) (A) (A) (A) (A) (A) (A)
                 (A) (A)
 The electronic state is 1-A.
 Alpha  occ. eigenvalues --  -20.60948 -20.60935 -15.85980 -11.31287 -11.27850
 Alpha  occ. eigenvalues --  -11.27846 -11.27588 -11.26856 -11.26846 -11.21287
 Alpha  occ. eigenvalues --  -11.20982 -11.20871 -11.20834 -11.20798 -11.19879
 Alpha  occ. eigenvalues --   -1.60004  -1.39561  -1.19455  -1.08862  -1.07921
 Alpha  occ. eigenvalues --   -1.04850  -1.02944  -0.95708  -0.95367  -0.86382
 Alpha  occ. eigenvalues --   -0.86251  -0.82541  -0.79032  -0.77727  -0.77594
 Alpha  occ. eigenvalues --   -0.72206  -0.71316  -0.70565  -0.65113  -0.64854
 Alpha  occ. eigenvalues --   -0.64564  -0.62198  -0.60357  -0.58754  -0.56958
 Alpha  occ. eigenvalues --   -0.55356  -0.54678  -0.53183  -0.52943  -0.52001
 Alpha  occ. eigenvalues --   -0.51792  -0.49341  -0.48961  -0.48948  -0.47330
 Alpha  occ. eigenvalues --   -0.46099  -0.45265  -0.45196  -0.44966  -0.43154
 Alpha  occ. eigenvalues --   -0.37434  -0.36451
 Alpha virt. eigenvalues --    0.04906   0.11204   0.16380   0.21297   0.23327
 Alpha virt. eigenvalues --    0.24920   0.27096   0.27240   0.27867   0.28076
 Alpha virt. eigenvalues --    0.28841   0.30813   0.31938   0.32103   0.32278
 Alpha virt. eigenvalues --    0.33746   0.34252   0.34612   0.34652   0.35319
 Alpha virt. eigenvalues --    0.35625   0.36714   0.36846   0.37048   0.40044
 Alpha virt. eigenvalues --    0.41224   0.43253   0.44242   0.45567   0.46264
 Alpha virt. eigenvalues --    0.46412   0.48433   0.49878   0.51090   0.57171
 Alpha virt. eigenvalues --    0.67259   0.68778   0.69836   0.70016   0.70345
 Alpha virt. eigenvalues --    0.71757   0.72198   0.75665   0.77124   0.77819
 Alpha virt. eigenvalues --    0.78562   0.78854   0.78914   0.79320   0.79761
 Alpha virt. eigenvalues --    0.80681   0.81188   0.81819   0.84559   0.85786
 Alpha virt. eigenvalues --    0.87479   0.87601   0.87886   0.88512   0.93555
 Alpha virt. eigenvalues --    0.96457   0.96532   0.96866   0.98954   1.00418
 Alpha virt. eigenvalues --    1.01486   1.02215   1.03891   1.06113   1.06330
 Alpha virt. eigenvalues --    1.08183   1.08416   1.08677   1.08963   1.11294
 Alpha virt. eigenvalues --    1.12132   1.14500   1.15412   1.16274   1.17011
 Alpha virt. eigenvalues --    1.17305   1.18956   1.19211   1.20228   1.20537
 Alpha virt. eigenvalues --    1.21394   1.21405   1.21520   1.22256   1.22350
 Alpha virt. eigenvalues --    1.23014   1.23229   1.24113   1.26034   1.26882
 Alpha virt. eigenvalues --    1.27186   1.27495   1.30332   1.31167   1.34097
 Alpha virt. eigenvalues --    1.40225   1.40788   1.43719   1.46347   1.47303
 Alpha virt. eigenvalues --    1.53237   1.53566   1.56194   1.60621   1.65678
 Alpha virt. eigenvalues --    1.66436   1.66583   1.67039   1.67494   1.67875
 Alpha virt. eigenvalues --    1.71543   1.72542   1.73199   1.73261   1.73372
 Alpha virt. eigenvalues --    1.75428   1.80138   1.82000   1.93365   1.97285
 Alpha virt. eigenvalues --    1.99211   1.99729   2.04342   2.04453   2.05687
 Alpha virt. eigenvalues --    2.09905   2.12338   2.12979   2.13748   2.15402
 Alpha virt. eigenvalues --    2.18377   2.21500   2.21554   2.22968   2.24565
 Alpha virt. eigenvalues --    2.26057   2.26335   2.27036   2.28269   2.32730
 Alpha virt. eigenvalues --    2.33281   2.34508   2.35994   2.36485   2.37524
 Alpha virt. eigenvalues --    2.40149   2.42800   2.43238   2.43627   2.44503
 Alpha virt. eigenvalues --    2.45590   2.46741   2.57318   2.57455   2.57988
 Alpha virt. eigenvalues --    2.58490   2.59437   2.60197   2.67531   2.68248
 Alpha virt. eigenvalues --    2.68337   2.70058   2.77440   2.78057   2.80550
 Alpha virt. eigenvalues --    2.81258   2.83384   2.91614   2.91820   2.91958
 Alpha virt. eigenvalues --    2.92115   2.95444   2.99133   2.99716   3.04582
 Alpha virt. eigenvalues --    3.04684   3.06766   3.10307   3.14294   3.19131
 Alpha virt. eigenvalues --    3.23664   3.25513   3.29908   3.43205   3.52794
 Alpha virt. eigenvalues --    3.76874   4.13033   4.29172   4.37699   4.47854
 Alpha virt. eigenvalues --    4.50579   4.52830   4.56130   4.63373   4.71793
 Alpha virt. eigenvalues --    4.72819   4.76649   4.80525   4.88547   5.00279
 Alpha virt. eigenvalues --    5.08866
          Condensed to atoms (all electrons):
               1          2          3          4          5          6
     1  C    4.875738   0.542574  -0.045780  -0.028580  -0.045733   0.542499
     2  C    0.542574   4.932026   0.523002  -0.040265  -0.030020  -0.043898
     3  C   -0.045780   0.523002   4.919024   0.548236  -0.052996  -0.030024
     4  C   -0.028580  -0.040265   0.548236   4.821420   0.548649  -0.040234
     5  C   -0.045733  -0.030020  -0.052996   0.548649   4.918540   0.523002
     6  C    0.542499  -0.043898  -0.030024  -0.040234   0.523002   4.932125
     7  H    0.381308  -0.027962   0.002171   0.000219   0.002170  -0.027967
     8  H   -0.027654   0.382569  -0.027320   0.001554   0.000203   0.002330
     9  H    0.001925  -0.023999   0.368448  -0.019651   0.002562  -0.000059
    10  H    0.001924  -0.000059   0.002558  -0.019645   0.368535  -0.024017
    11  H   -0.027659   0.002328   0.000205   0.001564  -0.027343   0.382572
    12  N    0.000009   0.001501  -0.044535   0.243329  -0.044479   0.001500
    13  O   -0.000004  -0.000028   0.003719  -0.087701   0.003916   0.000775
    14  O   -0.000004   0.000772   0.003883  -0.086765   0.003668  -0.000028
    15  C   -0.000000   0.000000   0.000000  -0.000000   0.000000  -0.000000
    16  C    0.000000  -0.000000  -0.000000   0.000000  -0.000000   0.000000
    17  C    0.000000  -0.000000  -0.000001  -0.000002   0.000000  -0.000000
    18  H    0.000000  -0.000000  -0.000000   0.000000   0.000000  -0.000000
    19  H   -0.000000  -0.000000   0.000000   0.000000  -0.000000   0.000000
    20  H   -0.000000  -0.000000  -0.000000   0.000000  -0.000000   0.000000
    21  H    0.000000   0.000000   0.000001  -0.000000   0.000000  -0.000000
    22  H    0.000000  -0.000000  -0.000000   0.000000  -0.000000   0.000000
    23  H   -0.000000   0.000000   0.000000  -0.000000  -0.000000   0.000000
    24  H    0.000000   0.000000  -0.000012   0.000016  -0.000000  -0.000000
    25  C   -0.000000  -0.000000   0.000000   0.000000  -0.000000   0.000000
    26  C    0.000000   0.000000   0.000000  -0.000000  -0.000000  -0.000000
    27  C   -0.000000  -0.000000   0.000000   0.000000   0.000000   0.000000
    28  H    0.000000  -0.000000  -0.000000  -0.000000   0.000000   0.000000
    29  H    0.000000  -0.000000  -0.000000  -0.000000   0.000000  -0.000000
    30  H    0.000000   0.000000   0.000000  -0.000000  -0.000000  -0.000000
    31  H    0.000000  -0.000000  -0.000000  -0.000000   0.000000  -0.000000
    32  H   -0.000000   0.000000   0.000000  -0.000000  -0.000000   0.000000
    33  H    0.000000  -0.000000  -0.000000  -0.000000  -0.000000   0.000000
    34  H    0.000000   0.000000  -0.000000  -0.000000   0.000000   0.000000
               7          8          9         10         11         12
     1  C    0.381308  -0.027654   0.001925   0.001924  -0.027659   0.000009
     2  C   -0.027962   0.382569  -0.023999  -0.000059   0.002328   0.001501
     3  C    0.002171  -0.027320   0.368448   0.002558   0.000205  -0.044535
     4  C    0.000219   0.001554  -0.019651  -0.019645   0.001564   0.243329
     5  C    0.002170   0.000203   0.002562   0.368535  -0.027343  -0.044479
     6  C   -0.027967   0.002330  -0.000059  -0.024017   0.382572   0.001500
     7  H    0.446600  -0.001193  -0.000071  -0.000071  -0.001193   0.000002
     8  H   -0.001193   0.446913  -0.001107   0.000007  -0.000093  -0.000049
     9  H   -0.000071  -0.001107   0.392408  -0.000075   0.000007  -0.005356
    10  H   -0.000071   0.000007  -0.000075   0.392451  -0.001108  -0.005349
    11  H   -0.001193  -0.000093   0.000007  -0.001108   0.446973  -0.000049
    12  N    0.000002  -0.000049  -0.005356  -0.005349  -0.000049   5.740437
    13  O    0.000000   0.000000   0.000047   0.008969  -0.000001   0.314224
    14  O    0.000000  -0.000001   0.008950   0.000046   0.000000   0.306799
    15  C   -0.000000   0.000000   0.000000   0.000000   0.000000   0.000000
    16  C    0.000000  -0.000000  -0.000000  -0.000000  -0.000000  -0.000001
    17  C    0.000000  -0.000000   0.000010   0.000000   0.000000   0.000028
    18  H    0.000000  -0.000000   0.000000   0.000000  -0.000000  -0.000000
    19  H    0.000000   0.000000  -0.000000  -0.000000  -0.000000  -0.000000
    20  H    0.000000   0.000000  -0.000000  -0.000000  -0.000000   0.000000
    21  H   -0.000000  -0.000000   0.000003  -0.000000   0.000000  -0.000000
    22  H    0.000000  -0.000000  -0.000000  -0.000000  -0.000000  -0.000000
    23  H   -0.000000   0.000000  -0.000000  -0.000000   0.000000  -0.000000
    24  H    0.000000  -0.000000   0.000039  -0.000000  -0.000000  -0.000062
    25  C   -0.000000   0.000000  -0.000000  -0.000000  -0.000000  -0.000000
    26  C    0.000000  -0.000000   0.000000   0.000000   0.000000   0.000000
    27  C   -0.000000   0.000000  -0.000000  -0.000000   0.000000  -0.000000
    28  H    0.000000   0.000000   0.000000   0.000000  -0.000000   0.000000
    29  H    0.000000  -0.000000   0.000000   0.000000  -0.000000   0.000000
    30  H   -0.000000  -0.000000   0.000000  -0.000000   0.000000   0.000000
    31  H    0.000000  -0.000000   0.000000   0.000000  -0.000000   0.000000
    32  H   -0.000000   0.000000  -0.000000  -0.000000   0.000000   0.000000
    33  H    0.000000  -0.000000   0.000000   0.000000  -0.000000   0.000000
    34  H    0.000000  -0.000000   0.000000   0.000000   0.000000   0.000000
              13         14         15         16         17         18
     1  C   -0.000004  -0.000004  -0.000000   0.000000   0.000000   0.000000
     2  C   -0.000028   0.000772   0.000000  -0.000000  -0.000000  -0.000000
     3  C    0.003719   0.003883   0.000000  -0.000000  -0.000001  -0.000000
     4  C   -0.087701  -0.086765  -0.000000   0.000000  -0.000002   0.000000
     5  C    0.003916   0.003668   0.000000  -0.000000   0.000000   0.000000
     6  C    0.000775  -0.000028  -0.000000   0.000000  -0.000000  -0.000000
     7  H    0.000000   0.000000  -0.000000   0.000000   0.000000   0.000000
     8  H    0.000000  -0.000001   0.000000  -0.000000  -0.000000  -0.000000
     9  H    0.000047   0.008950   0.000000  -0.000000   0.000010   0.000000
    10  H    0.008969   0.000046   0.000000  -0.000000   0.000000   0.000000
    11  H   -0.000001   0.000000   0.000000  -0.000000   0.000000  -0.000000
    12  N    0.314224   0.306799   0.000000  -0.000001   0.000028  -0.000000
    13  O    8.302126  -0.087447  -0.000000  -0.000000   0.000000   0.000000
    14  O   -0.087447   8.310793  -0.000000   0.000009  -0.000883   0.000000
    15  C   -0.000000  -0.000000   5.086059   0.351524  -0.057777   0.396190
    16  C   -0.000000   0.000009   0.351524   5.060388   0.339768  -0.041484
    17  C    0.000000  -0.000883  -0.057777   0.339768   5.113700  -0.002755
    18  H    0.000000   0.000000   0.396190  -0.041484  -0.002755   0.566324
    19  H   -0.000000   0.000000   0.395752  -0.041777  -0.002740  -0.031575
    20  H   -0.000000   0.000001  -0.044002   0.399396  -0.039454  -0.002995
    21  H    0.000000   0.000002  -0.044425   0.398232  -0.040109   0.004626
    22  H   -0.000000   0.000006  -0.004043  -0.039667   0.389372   0.000152
    23  H    0.000000   0.000004  -0.003949  -0.039169   0.390727   0.002655
    24  H   -0.000002   0.004035   0.004169  -0.034255   0.393986  -0.000054
    25  C    0.000000  -0.000000   0.355484  -0.052021   0.004060  -0.041832
    26  C   -0.000000   0.000000  -0.052025   0.003977  -0.000086  -0.003295
    27  C    0.000000  -0.000000   0.004073  -0.000085   0.000001  -0.000052
    28  H    0.000000  -0.000000  -0.041502  -0.003184  -0.000053  -0.002817
    29  H    0.000000  -0.000000  -0.041679  -0.003204  -0.000054   0.004483
    30  H    0.000000  -0.000000  -0.003140  -0.000064  -0.000001   0.002407
    31  H    0.000000  -0.000000  -0.003147  -0.000065  -0.000001   0.000236
    32  H   -0.000000   0.000000  -0.000071  -0.000001  -0.000000  -0.000001
    33  H   -0.000000   0.000000  -0.000070  -0.000001  -0.000000   0.000013
    34  H    0.000000  -0.000000  -0.000087   0.000001  -0.000000   0.000001
              19         20         21         22         23         24
     1  C   -0.000000  -0.000000   0.000000   0.000000  -0.000000   0.000000
     2  C   -0.000000  -0.000000   0.000000  -0.000000   0.000000   0.000000
     3  C    0.000000  -0.000000   0.000001  -0.000000   0.000000  -0.000012
     4  C    0.000000   0.000000  -0.000000   0.000000  -0.000000   0.000016
     5  C   -0.000000  -0.000000   0.000000  -0.000000  -0.000000  -0.000000
     6  C    0.000000   0.000000  -0.000000   0.000000   0.000000  -0.000000
     7  H    0.000000   0.000000  -0.000000   0.000000  -0.000000   0.000000
     8  H    0.000000   0.000000  -0.000000  -0.000000   0.000000  -0.000000
     9  H   -0.000000  -0.000000   0.000003  -0.000000  -0.000000   0.000039
    10  H   -0.000000  -0.000000  -0.000000  -0.000000  -0.000000  -0.000000
    11  H   -0.000000  -0.000000   0.000000  -0.000000   0.000000  -0.000000
    12  N   -0.000000   0.000000  -0.000000  -0.000000  -0.000000  -0.000062
    13  O   -0.000000  -0.000000   0.000000  -0.000000   0.000000  -0.000002
    14  O    0.000000   0.000001   0.000002   0.000006   0.000004   0.004035
    15  C    0.395752  -0.044002  -0.044425  -0.004043  -0.003949   0.004169
    16  C   -0.041777   0.399396   0.398232  -0.039667  -0.039169  -0.034255
    17  C   -0.002740  -0.039454  -0.040109   0.389372   0.390727   0.393986
    18  H   -0.031575  -0.002995   0.004626   0.000152   0.002655  -0.000054
    19  H    0.569735   0.004593  -0.003034   0.002676   0.000153  -0.000058
    20  H    0.004593   0.564096  -0.032103   0.004281  -0.002950  -0.002403
    21  H   -0.003034  -0.032103   0.573104  -0.002980   0.004276  -0.002338
    22  H    0.002676   0.004281  -0.002980   0.558162  -0.029730  -0.026211
    23  H    0.000153  -0.002950   0.004276  -0.029730   0.549959  -0.025317
    24  H   -0.000058  -0.002403  -0.002338  -0.026211  -0.025317   0.500873
    25  C   -0.042137  -0.003270  -0.003304  -0.000071  -0.000071  -0.000081
    26  C   -0.003321  -0.000065  -0.000065  -0.000000  -0.000000   0.000001
    27  C   -0.000052  -0.000000  -0.000000  -0.000000  -0.000000  -0.000000
    28  H    0.004496   0.002432   0.000235  -0.000001   0.000013   0.000001
    29  H   -0.002829   0.000236   0.002449   0.000013  -0.000001   0.000001
    30  H    0.000235   0.000017  -0.000003   0.000000  -0.000002   0.000000
    31  H    0.002422  -0.000003   0.000017  -0.000002   0.000000   0.000000
    32  H    0.000013   0.000000  -0.000002   0.000000  -0.000000  -0.000000
    33  H   -0.000001  -0.000002   0.000000  -0.000000   0.000000  -0.000000
    34  H    0.000001   0.000000   0.000000  -0.000000  -0.000000   0.000000
              25         26         27         28         29         30
     1  C   -0.000000   0.000000  -0.000000   0.000000   0.000000   0.000000
     2  C   -0.000000   0.000000  -0.000000  -0.000000  -0.000000   0.000000
     3  C    0.000000   0.000000   0.000000  -0.000000  -0.000000   0.000000
     4  C    0.000000  -0.000000   0.000000  -0.000000  -0.000000  -0.000000
     5  C   -0.000000  -0.000000   0.000000   0.000000   0.000000  -0.000000
     6  C    0.000000  -0.000000   0.000000   0.000000  -0.000000  -0.000000
     7  H   -0.000000   0.000000  -0.000000   0.000000   0.000000  -0.000000
     8  H    0.000000  -0.000000   0.000000   0.000000  -0.000000  -0.000000
     9  H   -0.000000   0.000000  -0.000000   0.000000   0.000000   0.000000
    10  H   -0.000000   0.000000  -0.000000   0.000000   0.000000  -0.000000
    11  H   -0.000000   0.000000   0.000000  -0.000000  -0.000000   0.000000
    12  N   -0.000000   0.000000  -0.000000   0.000000   0.000000   0.000000
    13  O    0.000000  -0.000000   0.000000   0.000000   0.000000   0.000000
    14  O   -0.000000   0.000000  -0.000000  -0.000000  -0.000000  -0.000000
    15  C    0.355484  -0.052025   0.004073  -0.041502  -0.041679  -0.003140
    16  C   -0.052021   0.003977  -0.000085  -0.003184  -0.003204  -0.000064
    17  C    0.004060  -0.000086   0.000001  -0.000053  -0.000054  -0.000001
    18  H   -0.041832  -0.003295  -0.000052  -0.002817   0.004483   0.002407
    19  H   -0.042137  -0.003321  -0.000052   0.004496  -0.002829   0.000235
    20  H   -0.003270  -0.000065  -0.000000   0.002432   0.000236   0.000017
    21  H   -0.003304  -0.000065  -0.000000   0.000235   0.002449  -0.000003
    22  H   -0.000071  -0.000000  -0.000000  -0.000001   0.000013   0.000000
    23  H   -0.000071  -0.000000  -0.000000   0.000013  -0.000001  -0.000002
    24  H   -0.000081   0.000001  -0.000000   0.000001   0.000001   0.000000
    25  C    5.084237   0.352469  -0.057443   0.396040   0.395694  -0.043489
    26  C    0.352469   5.060588   0.340582  -0.041985  -0.042127   0.399183
    27  C   -0.057443   0.340582   5.097874  -0.002901  -0.002902  -0.039963
    28  H    0.396040  -0.041985  -0.002901   0.567374  -0.031707  -0.002993
    29  H    0.395694  -0.042127  -0.002902  -0.031707   0.570227   0.004588
    30  H   -0.043489   0.399183  -0.039963  -0.002993   0.004588   0.563900
    31  H   -0.043636   0.398993  -0.040081   0.004583  -0.002991  -0.031657
    32  H   -0.003778  -0.038929   0.391058   0.000160   0.002643   0.004230
    33  H   -0.003759  -0.038834   0.391242   0.002632   0.000160  -0.002893
    34  H    0.004403  -0.035877   0.393981  -0.000059  -0.000059  -0.002503
              31         32         33         34
     1  C    0.000000  -0.000000   0.000000   0.000000
     2  C   -0.000000   0.000000  -0.000000   0.000000
     3  C   -0.000000   0.000000  -0.000000  -0.000000
     4  C   -0.000000  -0.000000  -0.000000  -0.000000
     5  C    0.000000  -0.000000  -0.000000   0.000000
     6  C   -0.000000   0.000000   0.000000   0.000000
     7  H    0.000000  -0.000000   0.000000   0.000000
     8  H   -0.000000   0.000000  -0.000000  -0.000000
     9  H    0.000000  -0.000000   0.000000   0.000000
    10  H    0.000000  -0.000000   0.000000   0.000000
    11  H   -0.000000   0.000000  -0.000000   0.000000
    12  N    0.000000   0.000000   0.000000   0.000000
    13  O    0.000000  -0.000000  -0.000000   0.000000
    14  O   -0.000000   0.000000   0.000000  -0.000000
    15  C   -0.003147  -0.000071  -0.000070  -0.000087
    16  C   -0.000065  -0.000001  -0.000001   0.000001
    17  C   -0.000001  -0.000000  -0.000000  -0.000000
    18  H    0.000236  -0.000001   0.000013   0.000001
    19  H    0.002422   0.000013  -0.000001   0.000001
    20  H   -0.000003   0.000000  -0.000002   0.000000
    21  H    0.000017  -0.000002   0.000000   0.000000
    22  H   -0.000002   0.000000  -0.000000  -0.000000
    23  H    0.000000  -0.000000   0.000000  -0.000000
    24  H    0.000000  -0.000000  -0.000000   0.000000
    25  C   -0.043636  -0.003778  -0.003759   0.004403
    26  C    0.398993  -0.038929  -0.038834  -0.035877
    27  C   -0.040081   0.391058   0.391242   0.393981
    28  H    0.004583   0.000160   0.002632  -0.000059
    29  H   -0.002991   0.002643   0.000160  -0.000059
    30  H   -0.031657   0.004230  -0.002893  -0.002503
    31  H    0.565481  -0.002899   0.004231  -0.002504
    32  H   -0.002899   0.550650  -0.029235  -0.027660
    33  H    0.004231  -0.029235   0.549140  -0.027569
    34  H   -0.002504  -0.027660  -0.027569   0.538639
 Mulliken charges:
               1
     1  C   -0.170563
     2  C   -0.218542
     3  C   -0.170578
     4  C    0.157856
     5  C   -0.170674
     6  C   -0.218577
     7  H    0.225986
     8  H    0.223841
     9  H    0.275923
    10  H    0.275834
    11  H    0.223797
    12  N    0.492051
    13  O   -0.458593
    14  O   -0.463842
    15  C   -0.297333
    16  C   -0.298317
    17  C   -0.487737
    18  H    0.149774
    19  H    0.147447
    20  H    0.152195
    21  H    0.145419
    22  H    0.148043
    23  H    0.153401
    24  H    0.187672
    25  C   -0.297497
    26  C   -0.299182
    27  C   -0.475331
    28  H    0.149235
    29  H    0.147060
    30  H    0.152148
    31  H    0.151023
    32  H    0.153822
    33  H    0.154946
    34  H    0.159294
 Sum of Mulliken charges =  -0.00000
 Mulliken charges with hydrogens summed into heavy atoms:
               1
     1  C    0.055422
     2  C    0.005299
     3  C    0.105345
     4  C    0.157856
     5  C    0.105160
     6  C    0.005219
    12  N    0.492051
    13  O   -0.458593
    14  O   -0.463842
    15  C   -0.000112
    16  C   -0.000703
    17  C    0.001379
    25  C   -0.001201
    26  C    0.003989
    27  C   -0.007269
 Electronic spatial extent (au):  <R**2>=           8779.3503
 Charge=             -0.0000 electrons
 Dipole moment (field-independent basis, Debye):
    X=             -2.6490    Y=              4.5200    Z=              0.7451  Tot=              5.2917
 Quadrupole moment (field-independent basis, Debye-Ang):
   XX=            -78.5603   YY=            -97.0024   ZZ=            -91.5005
   XY=            -15.8307   XZ=              0.2869   YZ=              1.1710
 Traceless Quadrupole moment (field-independent basis, Debye-Ang):
   XX=             10.4608   YY=             -7.9813   ZZ=             -2.4794
   XY=            -15.8307   XZ=              0.2869   YZ=              1.1710
 Octapole moment (field-independent basis, Debye-Ang**2):
  XXX=           -125.2321  YYY=             16.1870  ZZZ=             -0.2276  XYY=            -18.5869
  XXY=             48.9551  XXZ=            -18.2081  XZZ=            -13.9417  YZZ=              3.6371
  YYZ=             11.2949  XYZ=              6.7812
 Hexadecapole moment (field-independent basis, Debye-Ang**3):
 XXXX=         -10108.7460 YYYY=          -1251.5091 ZZZZ=           -456.7571 XXXY=           -290.9505
 XXXZ=            187.9496 YYYX=            -98.9120 YYYZ=             22.8152 ZZZX=             20.8359
 ZZZY=             14.8390 XXYY=          -1873.2888 XXZZ=          -1782.1479 YYZZ=           -293.2338
 XXYZ=              5.1332 YYXZ=            -34.6543 ZZXY=            -16.9273
 N-N= 8.718631029318D+02 E-N=-3.307055940276D+03  KE= 6.679566203962D+02
 Leave Link  601 at Thu May  6 09:29:08 2021, MaxMem=   524288000 cpu:               0.5 elap:               0.5
 (Enter /opt/gaussian/g16_legacy/l9999.exe)
 1\1\GINC-TRUENO91\SP\RMP2-FC\6-31G(d)\C12H19N1O2\JRAMOS\06-May-2021\0\
 \#p 6-31g* mp2\\Input file generated by CHIRIPA (05-May-2021 14:55:23)
 \\0,1\C,0,1.914143,0.,0.\C,0,1.214143,1.211,0.\C,0,-0.183857,1.223,0.\
 C,0,-0.852857,0.,0.\C,0,-0.183857,-1.223,0.\C,0,1.214143,-1.211,0.\H,0
 ,3.000143,0.,0.\H,0,1.755143,2.153,0.\H,0,-0.750857,2.146,0.\H,0,-0.75
 0857,-2.146,0.\H,0,1.755143,-2.153,0.\N,0,-2.332857,0.,0.\O,0,-2.89885
 7,-1.091,0.\O,0,-2.898857,1.091,0.\C,0,-4.667248,4.632336,4.763405\C,0
 ,-4.052693,3.619022,3.797226\C,0,-4.679558,3.675433,2.403794\H,0,-5.74
 7912,4.449285,4.838257\H,0,-4.549415,5.642736,4.34795\H,0,-4.170421,2.
 610958,4.215033\H,0,-2.973335,3.804386,3.724812\H,0,-4.549545,4.669031
 ,1.962817\H,0,-5.753433,3.468823,2.455824\H,0,-4.225416,2.942843,1.729
 311\C,0,-4.050986,4.588084,6.160542\C,0,-4.665541,5.601398,7.126721\C,
 0,-4.038676,5.544987,8.520152\H,0,-4.168819,3.577684,6.575997\H,0,-2.9
 70322,4.771135,6.085689\H,0,-5.744899,5.416034,7.199134\H,0,-4.547813,
 6.609462,6.708913\H,0,-2.964801,5.751598,8.468122\H,0,-4.168688,4.5513
 89,8.961129\H,0,-4.492818,6.277577,9.194635\\Version=EM64L-G16RevA.03\
 State=1-A\HF=-669.5362201\MP2=-671.6269146\RMSD=6.715e-09\PG=C01 [X(C1
 2H19N1O2)]\\@


 ADAM SMITH SAID, "THE REAL PRICE OF ANYTHING IS THE TOIL AND TROUBLE
 OF ACQUIRING IT."  BUT IN ALL UNDERTAKINGS WITH NATURE WE SHOULD FIRST
 READ CAREFULLY THE SMALL PRINT IN THE CONTRACT. THIS MIGHT DISCLOSE
 THAT THE REAL PRICE IS TO BE PAID BY THOSE WHO INHERIT THE DEPLETION
 AND DESPOILATION THAT FOLLOWS.
                               -- E. R. HARRISON IN "COSMOLOGY" (1980)
 Job cpu time:       0 days  0 hours  3 minutes 54.9 seconds.
 Elapsed time:       0 days  0 hours  2 minutes 18.7 seconds.
 File lengths (MBytes):  RWF=     43 Int=      0 D2E=      0 Chk=      6 Scr=      1
 Normal termination of Gaussian 16 at Thu May  6 09:29:09 2021.
