 Entering Gaussian System, Link 0=/opt/gaussian/g16_legacy/g16
 Input=gaussian_03644_2_2.com
 Output=gaussian_03644_2_2.log
 Initial command:
 /opt/gaussian/g16_legacy/l1.exe "/scratch-local/jramos/2597176/Gau-31162.inp" -scrdir="/scratch-local/jramos/2597176/"
 Entering Link 1 = /opt/gaussian/g16_legacy/l1.exe PID=     31163.
  
 Copyright (c) 1988,1990,1992,1993,1995,1998,2003,2009,2016,
            Gaussian, Inc.  All Rights Reserved.
  
 This is part of the Gaussian(R) 16 program.  It is based on
 the Gaussian(R) 09 system (copyright 2009, Gaussian, Inc.),
 the Gaussian(R) 03 system (copyright 2003, Gaussian, Inc.),
 the Gaussian(R) 98 system (copyright 1998, Gaussian, Inc.),
 the Gaussian(R) 94 system (copyright 1995, Gaussian, Inc.),
 the Gaussian 92(TM) system (copyright 1992, Gaussian, Inc.),
 the Gaussian 90(TM) system (copyright 1990, Gaussian, Inc.),
 the Gaussian 88(TM) system (copyright 1988, Gaussian, Inc.),
 the Gaussian 86(TM) system (copyright 1986, Carnegie Mellon
 University), and the Gaussian 82(TM) system (copyright 1983,
 Carnegie Mellon University). Gaussian is a federally registered
 trademark of Gaussian, Inc.
  
 This software contains proprietary and confidential information,
 including trade secrets, belonging to Gaussian, Inc.
  
 This software is provided under written license and may be
 used, copied, transmitted, or stored only in accord with that
 written license.
  
 The following legend is applicable only to US Government
 contracts under FAR:
  
                    RESTRICTED RIGHTS LEGEND
  
 Use, reproduction and disclosure by the US Government is
 subject to restrictions as set forth in subparagraphs (a)
 and (c) of the Commercial Computer Software - Restricted
 Rights clause in FAR 52.227-19.
  
 Gaussian, Inc.
 340 Quinnipiac St., Bldg. 40, Wallingford CT 06492
  
  
 ---------------------------------------------------------------
 Warning -- This program may not be used in any manner that
 competes with the business of Gaussian, Inc. or will provide
 assistance to any competitor of Gaussian, Inc.  The licensee
 of this program is prohibited from giving any competitor of
 Gaussian, Inc. access to this program.  By using this program,
 the user acknowledges that Gaussian, Inc. is engaged in the
 business of creating and licensing software in the field of
 computational chemistry and represents and warrants to the
 licensee that it is not a competitor of Gaussian, Inc. and that
 it will not use this program in any manner prohibited above.
 ---------------------------------------------------------------
  

 Cite this work as:
 Gaussian 16, Revision A.03,
 M. J. Frisch, G. W. Trucks, H. B. Schlegel, G. E. Scuseria, 
 M. A. Robb, J. R. Cheeseman, G. Scalmani, V. Barone, 
 G. A. Petersson, H. Nakatsuji, X. Li, M. Caricato, A. V. Marenich, 
 J. Bloino, B. G. Janesko, R. Gomperts, B. Mennucci, H. P. Hratchian, 
 J. V. Ortiz, A. F. Izmaylov, J. L. Sonnenberg, D. Williams-Young, 
 F. Ding, F. Lipparini, F. Egidi, J. Goings, B. Peng, A. Petrone, 
 T. Henderson, D. Ranasinghe, V. G. Zakrzewski, J. Gao, N. Rega, 
 G. Zheng, W. Liang, M. Hada, M. Ehara, K. Toyota, R. Fukuda, 
 J. Hasegawa, M. Ishida, T. Nakajima, Y. Honda, O. Kitao, H. Nakai, 
 T. Vreven, K. Throssell, J. A. Montgomery, Jr., J. E. Peralta, 
 F. Ogliaro, M. J. Bearpark, J. J. Heyd, E. N. Brothers, K. N. Kudin, 
 V. N. Staroverov, T. A. Keith, R. Kobayashi, J. Normand, 
 K. Raghavachari, A. P. Rendell, J. C. Burant, S. S. Iyengar, 
 J. Tomasi, M. Cossi, J. M. Millam, M. Klene, C. Adamo, R. Cammi, 
 J. W. Ochterski, R. L. Martin, K. Morokuma, O. Farkas, 
 J. B. Foresman, and D. J. Fox, Gaussian, Inc., Wallingford CT, 2016.
 
 ******************************************
 Gaussian 16:  EM64L-G16RevA.03 25-Dec-2016
                 6-May-2021 
 ******************************************
 %chk=gaussian_03644_2_2.chk
 %nproc=2
 Will use up to    2 processors via shared memory.
 %mem=4000Mb
 -------------
 #p 6-31g* mp2
 -------------
 1/38=1,172=1/1;
 2/12=2,17=6,18=5,40=1/2;
 3/5=1,6=6,7=1,11=9,25=1,30=1/1,2,3;
 4//1;
 5/5=2,38=5/2;
 8/10=2/1;
 9/16=-3/6;
 6/7=2,8=2,9=2,10=2/1;
 99/5=1,9=1/99;
 Leave Link    1 at Thu May  6 11:23:26 2021, MaxMem=   524288000 cpu:               0.1 elap:               0.1
 (Enter /opt/gaussian/g16_legacy/l101.exe)
 ------------------------------------------------------
 Input file generated by CHIRIPA (05-May-2021 14:57:25)
 ------------------------------------------------------
 Symbolic Z-matrix:
 Charge =  0 Multiplicity = 1
 C                     1.91414   0.        0. 
 C                     1.21414   1.211     0. 
 C                    -0.18386   1.223     0. 
 C                    -0.85286   0.        0. 
 C                    -0.18386  -1.223     0. 
 C                     1.21414  -1.211     0. 
 H                     3.00014   0.        0. 
 H                     1.75514   2.153     0. 
 H                    -0.75086   2.146     0. 
 H                    -0.75086  -2.146     0. 
 H                     1.75514  -2.153     0. 
 N                    -2.33286   0.        0. 
 O                    -2.89886  -1.091     0. 
 O                    -2.89886   1.091     0. 
 C                     5.41251  -1.56438  -2.6653 
 C                     4.02393  -1.43223  -2.76969 
 C                     3.44978  -0.84284  -3.89996 
 C                     4.29782  -0.3946   -4.91149 
 C                     5.68488  -0.51202  -4.83686 
 C                     6.2371   -1.10466  -3.6974 
 H                     5.85001  -2.0235   -1.78371 
 H                     3.3811   -1.78835  -1.9697 
 H                     2.37794  -0.72797  -4.0067 
 H                     6.29988  -0.14748  -5.65068 
 H                     7.31583  -1.20597  -3.61905 
 N                     3.7016    0.23108  -6.11292 
 O                     4.47052   0.61792  -6.99028 
 O                     2.47665   0.32281  -6.1545 
 
 ITRead=  0  0  0  0  0  0  0  0  0  0  0  0  0  0  0  0  0  0  0  0
 ITRead=  0  0  0  0  0  0  0  0
 MicOpt= -1 -1 -1 -1 -1 -1 -1 -1 -1 -1 -1 -1 -1 -1 -1 -1 -1 -1 -1 -1
 MicOpt= -1 -1 -1 -1 -1 -1 -1 -1
 NAtoms=     28 NQM=       28 NQMF=       0 NMMI=      0 NMMIF=      0
                NMic=       0 NMicF=      0.
                    Isotopes and Nuclear Properties:
 (Nuclear quadrupole moments (NQMom) in fm**2, nuclear magnetic moments (NMagM)
  in nuclear magnetons)

  Atom         1           2           3           4           5           6           7           8           9          10
 IAtWgt=          12          12          12          12          12          12           1           1           1           1
 AtmWgt=  12.0000000  12.0000000  12.0000000  12.0000000  12.0000000  12.0000000   1.0078250   1.0078250   1.0078250   1.0078250
 NucSpn=           0           0           0           0           0           0           1           1           1           1
 AtZEff=  -0.0000000  -0.0000000  -0.0000000  -0.0000000  -0.0000000  -0.0000000  -0.0000000  -0.0000000  -0.0000000  -0.0000000
 NQMom=    0.0000000   0.0000000   0.0000000   0.0000000   0.0000000   0.0000000   0.0000000   0.0000000   0.0000000   0.0000000
 NMagM=    0.0000000   0.0000000   0.0000000   0.0000000   0.0000000   0.0000000   2.7928460   2.7928460   2.7928460   2.7928460
 AtZNuc=   6.0000000   6.0000000   6.0000000   6.0000000   6.0000000   6.0000000   1.0000000   1.0000000   1.0000000   1.0000000

  Atom        11          12          13          14          15          16          17          18          19          20
 IAtWgt=           1          14          16          16          12          12          12          12          12          12
 AtmWgt=   1.0078250  14.0030740  15.9949146  15.9949146  12.0000000  12.0000000  12.0000000  12.0000000  12.0000000  12.0000000
 NucSpn=           1           2           0           0           0           0           0           0           0           0
 AtZEff=  -0.0000000  -0.0000000  -0.0000000  -0.0000000  -0.0000000  -0.0000000  -0.0000000  -0.0000000  -0.0000000  -0.0000000
 NQMom=    0.0000000   2.0440000   0.0000000   0.0000000   0.0000000   0.0000000   0.0000000   0.0000000   0.0000000   0.0000000
 NMagM=    2.7928460   0.4037610   0.0000000   0.0000000   0.0000000   0.0000000   0.0000000   0.0000000   0.0000000   0.0000000
 AtZNuc=   1.0000000   7.0000000   8.0000000   8.0000000   6.0000000   6.0000000   6.0000000   6.0000000   6.0000000   6.0000000

  Atom        21          22          23          24          25          26          27          28
 IAtWgt=           1           1           1           1           1          14          16          16
 AtmWgt=   1.0078250   1.0078250   1.0078250   1.0078250   1.0078250  14.0030740  15.9949146  15.9949146
 NucSpn=           1           1           1           1           1           2           0           0
 AtZEff=  -0.0000000  -0.0000000  -0.0000000  -0.0000000  -0.0000000  -0.0000000  -0.0000000  -0.0000000
 NQMom=    0.0000000   0.0000000   0.0000000   0.0000000   0.0000000   2.0440000   0.0000000   0.0000000
 NMagM=    2.7928460   2.7928460   2.7928460   2.7928460   2.7928460   0.4037610   0.0000000   0.0000000
 AtZNuc=   1.0000000   1.0000000   1.0000000   1.0000000   1.0000000   7.0000000   8.0000000   8.0000000
 Leave Link  101 at Thu May  6 11:23:26 2021, MaxMem=   524288000 cpu:               0.4 elap:               0.2
 (Enter /opt/gaussian/g16_legacy/l202.exe)
                          Input orientation:                          
 ---------------------------------------------------------------------
 Center     Atomic      Atomic             Coordinates (Angstroms)
 Number     Number       Type             X           Y           Z
 ---------------------------------------------------------------------
      1          6           0        1.914143    0.000000    0.000000
      2          6           0        1.214143    1.211000    0.000000
      3          6           0       -0.183857    1.223000    0.000000
      4          6           0       -0.852857    0.000000    0.000000
      5          6           0       -0.183857   -1.223000    0.000000
      6          6           0        1.214143   -1.211000    0.000000
      7          1           0        3.000143    0.000000    0.000000
      8          1           0        1.755143    2.153000    0.000000
      9          1           0       -0.750857    2.146000    0.000000
     10          1           0       -0.750857   -2.146000    0.000000
     11          1           0        1.755143   -2.153000    0.000000
     12          7           0       -2.332857    0.000000    0.000000
     13          8           0       -2.898857   -1.091000    0.000000
     14          8           0       -2.898857    1.091000    0.000000
     15          6           0        5.412515   -1.564379   -2.665300
     16          6           0        4.023932   -1.432234   -2.769689
     17          6           0        3.449779   -0.842839   -3.899959
     18          6           0        4.297823   -0.394603   -4.911491
     19          6           0        5.684882   -0.512020   -4.836864
     20          6           0        6.237104   -1.104661   -3.697401
     21          1           0        5.850012   -2.023496   -1.783709
     22          1           0        3.381096   -1.788352   -1.969698
     23          1           0        2.377944   -0.727969   -4.006696
     24          1           0        6.299883   -0.147480   -5.650684
     25          1           0        7.315827   -1.205969   -3.619048
     26          7           0        3.701601    0.231081   -6.112923
     27          8           0        4.470520    0.617920   -6.990282
     28          8           0        2.476654    0.322807   -6.154498
 ---------------------------------------------------------------------
                    Distance matrix (angstroms):
                    1          2          3          4          5
     1  C    0.000000
     2  C    1.398757   0.000000
     3  C    2.428443   1.398052   0.000000
     4  C    2.767000   2.395623   1.394019   0.000000
     5  C    2.428443   2.806913   2.446000   1.394019   0.000000
     6  C    1.398757   2.422000   2.806913   2.395623   1.398052
     7  H    1.086000   2.157850   3.410804   3.853000   3.410804
     8  H    2.158863   1.086299   2.150493   3.381874   3.893212
     9  H    3.421628   2.176109   1.083244   2.148423   3.416380
    10  H    3.421628   3.889817   3.416380   2.148423   1.083244
    11  H    2.158863   3.407224   3.893212   3.381874   2.150493
    12  N    4.247000   3.748030   2.472636   1.480000   2.472636
    13  O    4.935104   4.713382   3.567327   2.318706   2.718207
    14  O    4.935104   4.114750   2.718207   2.318706   3.567327
    15  C    4.667945   5.694987   6.796520   6.986129   6.208039
    16  C    3.764795   4.748976   5.694465   5.788397   5.041869
    17  C    4.275305   4.942267   5.716702   5.867941   5.343923
    18  C    5.473608   6.017457   6.842868   7.127970   6.700331
    19  C    6.154339   6.808198   7.800490   8.148586   7.638249
    20  C    5.794743   6.653059   7.766435   8.072088   7.410366
    21  H    4.771501   5.927467   7.080179   7.225276   6.342711
    22  H    3.038069   4.191838   5.065258   5.000427   4.111961
    23  H    4.098617   4.600831   5.140303   5.198233   4.781369
    24  H    7.154488   7.722723   8.709037   9.116670   8.667517
    25  H    6.612871   7.494651   8.674253   9.015502   8.327248
    26  N    6.373087   6.671995   7.310849   7.626553   7.387758
    27  O    7.468663   7.734325   8.419821   8.808190   8.597456
    28  O    6.188576   6.345129   6.765095   7.004834   6.880820
                    6          7          8          9         10
     6  C    0.000000
     7  H    2.157850   0.000000
     8  H    3.407224   2.487053   0.000000
     9  H    3.889817   4.321495   2.506010   0.000000
    10  H    2.176109   4.321495   4.976087   4.292000   0.000000
    11  H    1.086299   2.487053   4.306000   4.976087   2.506010
    12  N    3.748030   5.333000   4.620298   2.666091   2.666091
    13  O    4.114750   5.999040   5.673028   3.884852   2.393100
    14  O    4.713382   5.999040   4.773632   2.393100   3.884852
    15  C    4.985482   3.920541   5.856543   7.671890   6.740123
    16  C    3.951586   3.281862   5.066802   6.578263   5.565901
    17  C    4.510354   4.015250   5.201588   6.464378   5.878201
    18  C    5.856478   5.095334   6.089191   7.487762   7.258051
    19  C    6.623544   5.555649   6.777937   8.478152   8.214857
    20  C    6.237966   5.036762   6.661164   8.548051   7.974131
    21  H    5.033195   3.924017   6.114956   8.008607   6.838720
    22  H    2.984750   2.687571   4.696561   6.035882   4.591368
    23  H    4.200162   4.119549   4.974080   5.839752   5.277672
    24  H    7.676331   6.545247   7.607700   9.322189   9.254039
    25  H    7.094229   5.759948   7.436490   9.455400   8.891151
    26  N    6.755359   6.157375   6.697037   7.801226   7.927340
    27  O    7.925464   7.169929   7.654658   8.857869   9.152381
    28  O    6.467174   6.185151   6.461272   7.184616   7.374936
                   11         12         13         14         15
    11  H    0.000000
    12  N    4.620298   0.000000
    13  O    4.773632   1.229080   0.000000
    14  O    5.673028   1.229080   2.182000   0.000000
    15  C    4.563625   8.339178   8.741099   9.123254   0.000000
    16  C    3.652134   7.080342   7.464089   7.871651   1.398757
    17  C    4.449494   7.025592   7.454961   7.697700   2.428443
    18  C    5.803441   8.261015   8.740705   8.838663   2.767000
    19  C    6.444449   9.377716   9.869703   9.982259   2.428443
    20  C    5.904046   9.398685   9.855797  10.097400   1.398757
    21  H    4.468371   8.616002   8.977409   9.456448   1.085999
    22  H    2.580000   6.302949   6.618445   7.183884   2.158863
    23  H    4.297931   6.226973   6.635513   6.870727   3.421629
    24  H    7.523762  10.318730  10.836848  10.866503   3.421629
    25  H    6.701909  10.375402  10.837458  11.077606   2.158863
    26  N    6.844002   8.592782   9.092952   9.037330   4.247000
    27  O    7.994705   9.774037  10.300105  10.168361   4.935104
    28  O    6.672934   7.817509   8.292938   8.207563   4.935104
                   16         17         18         19         20
    16  C    0.000000
    17  C    1.398052   0.000000
    18  C    2.395623   1.394020   0.000000
    19  C    2.806913   2.446000   1.394019   0.000000
    20  C    2.422000   2.806913   2.395623   1.398052   0.000000
    21  H    2.157850   3.410804   3.852999   3.410804   2.157850
    22  H    1.086298   2.150493   3.381874   3.893211   3.407224
    23  H    2.176109   1.083244   2.148423   3.416380   3.889817
    24  H    3.889817   3.416380   2.148423   1.083244   2.176109
    25  H    3.407225   3.893212   3.381874   2.150494   1.086299
    26  N    3.748030   2.472636   1.480000   2.472636   3.748030
    27  O    4.713383   3.567327   2.318706   2.718207   4.114750
    28  O    4.114750   2.718207   2.318707   3.567327   4.713383
                   21         22         23         24         25
    21  H    0.000000
    22  H    2.487053   0.000000
    23  H    4.321495   2.506010   0.000000
    24  H    4.321495   4.976086   4.292001   0.000000
    25  H    2.487053   4.306000   4.976087   2.506010   0.000000
    26  N    5.332999   4.620297   2.666090   2.666091   4.620298
    27  O    5.999040   5.673029   3.884852   2.393100   4.773632
    28  O    5.999040   4.773632   2.393100   3.884852   5.673029
                   26         27         28
    26  N    0.000000
    27  O    1.229081   0.000000
    28  O    1.229080   2.182001   0.000000
 Stoichiometry    C12H10N2O4
 Framework group  C1[X(C12H10N2O4)]
 Deg. of freedom    78
 Full point group                 C1      NOp   1
 Largest Abelian subgroup         C1      NOp   1
 Largest concise Abelian subgroup C1      NOp   1
                         Standard orientation:                         
 ---------------------------------------------------------------------
 Center     Atomic      Atomic             Coordinates (Angstroms)
 Number     Number       Type             X           Y           Z
 ---------------------------------------------------------------------
      1          6           0       -1.508327   -1.625939    0.835376
      2          6           0       -2.105966   -0.769803    1.766171
      3          6           0       -3.176875    0.047954    1.393376
      4          6           0       -3.626719   -0.016193    0.075493
      5          6           0       -3.052201   -0.858742   -0.874944
      6          6           0       -1.982516   -1.667603   -0.479892
      7          1           0       -0.676894   -2.257737    1.133616
      8          1           0       -1.739795   -0.735353    2.788314
      9          1           0       -3.658011    0.719957    2.093617
     10          1           0       -3.439246   -0.871023   -1.886608
     11          1           0       -1.520317   -2.331523   -1.204893
     12          7           0       -4.759794    0.844821   -0.330950
     13          8           0       -5.137511    0.769683   -1.498135
     14          8           0       -5.248728    1.578517    0.525362
     15          6           0        2.959003   -2.311451   -0.331992
     16          6           0        1.956125   -1.379062   -0.617312
     17          6           0        2.211364   -0.008271   -0.515655
     18          6           0        3.486473    0.396845   -0.124158
     19          6           0        4.506520   -0.507652    0.166839
     20          6           0        4.228761   -1.873542    0.058485
     21          1           0        2.751980   -3.374411   -0.413563
     22          1           0        0.969089   -1.716264   -0.920789
     23          1           0        1.453372    0.735141   -0.730606
     24          1           0        5.480685   -0.141123    0.466967
     25          1           0        5.009538   -2.595386    0.280691
     26          7           0        3.768603    1.845446   -0.012993
     27          8           0        4.900218    2.176697    0.333936
     28          8           0        2.852781    2.622179   -0.274895
 ---------------------------------------------------------------------
 Rotational constants (GHZ):           0.7245843           0.1452648           0.1307774
 Leave Link  202 at Thu May  6 11:23:27 2021, MaxMem=   524288000 cpu:               0.1 elap:               0.1
 (Enter /opt/gaussian/g16_legacy/l301.exe)
 Standard basis: 6-31G(d) (6D, 7F)
 Ernie: Thresh=  0.10000D-02 Tol=  0.10000D-05 Strict=F.
 There are   290 symmetry adapted cartesian basis functions of A   symmetry.
 There are   290 symmetry adapted basis functions of A   symmetry.
   290 basis functions,   544 primitive gaussians,   290 cartesian basis functions
    64 alpha electrons       64 beta electrons
       nuclear repulsion energy      1135.9831111598 Hartrees.
 IExCor=    0 DFT=F Ex=HF Corr=None ExCW=0 ScaHFX=  1.000000
 ScaDFX=  1.000000  1.000000  1.000000  1.000000 ScalE2=  1.000000  1.000000
 IRadAn=      5 IRanWt=     -1 IRanGd=            0 ICorTp=0 IEmpDi=  4
 NAtoms=   28 NActive=   28 NUniq=   28 SFac= 1.00D+00 NAtFMM=   60 NAOKFM=F Big=F
 Integral buffers will be    131072 words long.
 Raffenetti 1 integral format.
 Two-electron integral symmetry is turned on.
 Leave Link  301 at Thu May  6 11:23:27 2021, MaxMem=   524288000 cpu:               0.3 elap:               0.3
 (Enter /opt/gaussian/g16_legacy/l302.exe)
 NPDir=0 NMtPBC=     1 NCelOv=     1 NCel=       1 NClECP=     1 NCelD=      1
         NCelK=      1 NCelE2=     1 NClLst=     1 CellRange=     0.0.
 One-electron integrals computed using PRISM.
 One-electron integral symmetry used in STVInt
 NBasis=   290 RedAO= T EigKep=  4.73D-04  NBF=   290
 NBsUse=   290 1.00D-06 EigRej= -1.00D+00 NBFU=   290
 Leave Link  302 at Thu May  6 11:23:28 2021, MaxMem=   524288000 cpu:               0.9 elap:               0.7
 (Enter /opt/gaussian/g16_legacy/l303.exe)
 DipDrv:  MaxL=1.
 Leave Link  303 at Thu May  6 11:23:28 2021, MaxMem=   524288000 cpu:               0.2 elap:               0.1
 (Enter /opt/gaussian/g16_legacy/l401.exe)
 ExpMin= 1.61D-01 ExpMax= 5.48D+03 ExpMxC= 8.25D+02 IAcc=3 IRadAn=         5 AccDes= 0.00D+00
 Harris functional with IExCor=  205 and IRadAn=       5 diagonalized for initial guess.
 HarFok:  IExCor=  205 AccDes= 0.00D+00 IRadAn=         5 IDoV= 1 UseB2=F ITyADJ=14
 ICtDFT=  3500011 ScaDFX=  1.000000  1.000000  1.000000  1.000000
 FoFCou: FMM=F IPFlag=           0 FMFlag=      100000 FMFlg1=           0
         NFxFlg=           0 DoJE=T BraDBF=F KetDBF=T FulRan=T
         wScrn=  0.000000 ICntrl=       500 IOpCl=  0 I1Cent=   200000004 NGrid=           0
         NMat0=    1 NMatS0=      1 NMatT0=    0 NMatD0=    1 NMtDS0=    0 NMtDT0=    0
 Petite list used in FoFCou.
 Harris En= -869.212286752965    
 JPrj=0 DoOrth=F DoCkMO=F.
 Leave Link  401 at Thu May  6 11:23:35 2021, MaxMem=   524288000 cpu:              12.5 elap:               6.3
 (Enter /opt/gaussian/g16_legacy/l502.exe)
 Integral symmetry usage will be decided dynamically.
 Closed shell SCF:
 Using DIIS extrapolation, IDIIS=  1040.
 NGot=   524288000 LenX=   524114954 LenY=   524030413
 Requested convergence on RMS density matrix=1.00D-08 within 128 cycles.
 Requested convergence on MAX density matrix=1.00D-06.
 Requested convergence on             energy=1.00D-06.
 No special actions if energy rises.
 Fock matrices will be formed incrementally for  20 cycles.
 Integral accuracy reduced to 1.0D-05 until final iterations.

 Cycle   1  Pass 0  IDiag  1:
 FoFJK:  IHMeth= 1 ICntrl=       0 DoSepK=F KAlg= 0 I1Cent=           0 FoldK=F
 IRaf= 710000000 NMat=       1 IRICut=       1 DoRegI=T DoRafI=F ISym2E= 0 IDoP0=0 IntGTp=1.
 FoFCou: FMM=F IPFlag=           0 FMFlag=      100000 FMFlg1=           0
         NFxFlg=           0 DoJE=F BraDBF=F KetDBF=F FulRan=T
         wScrn=  0.000000 ICntrl=         0 IOpCl=  0 I1Cent=           0 NGrid=           0
         NMat0=    1 NMatS0=      1 NMatT0=    0 NMatD0=    1 NMtDS0=    0 NMtDT0=    0
 Symmetry not used in FoFCou.
 E= -867.610664669923    
 DIIS: error= 5.60D-02 at cycle   1 NSaved=   1.
 NSaved= 1 IEnMin= 1 EnMin= -867.610664669923     IErMin= 1 ErrMin= 5.60D-02
 ErrMax= 5.60D-02  0.00D+00 EMaxC= 1.00D-01 BMatC= 1.28D+00 BMatP= 1.28D+00
 IDIUse=3 WtCom= 4.40D-01 WtEn= 5.60D-01
 Coeff-Com:  0.100D+01
 Coeff-En:   0.100D+01
 Coeff:      0.100D+01
 Gap=     0.553 Goal=   None    Shift=    0.000
 GapD=    0.553 DampG=2.000 DampE=0.500 DampFc=1.0000 IDamp=-1.
 RMSDP=4.46D-03 MaxDP=9.69D-02              OVMax= 1.49D-01

 Cycle   2  Pass 0  IDiag  1:
 RMSU=  4.35D-03    CP:  9.52D-01
 E= -868.120024756853     Delta-E=       -0.509360086930 Rises=F Damp=F
 DIIS: error= 3.21D-02 at cycle   2 NSaved=   2.
 NSaved= 2 IEnMin= 2 EnMin= -868.120024756853     IErMin= 2 ErrMin= 3.21D-02
 ErrMax= 3.21D-02  0.00D+00 EMaxC= 1.00D-01 BMatC= 2.88D-01 BMatP= 1.28D+00
 IDIUse=3 WtCom= 6.79D-01 WtEn= 3.21D-01
 Coeff-Com:  0.267D+00 0.733D+00
 Coeff-En:   0.000D+00 0.100D+01
 Coeff:      0.181D+00 0.819D+00
 Gap=     0.476 Goal=   None    Shift=    0.000
 RMSDP=1.85D-03 MaxDP=8.52D-02 DE=-5.09D-01 OVMax= 1.22D-01

 Cycle   3  Pass 0  IDiag  1:
 RMSU=  1.63D-03    CP:  9.54D-01  8.01D-01
 E= -868.287235355121     Delta-E=       -0.167210598268 Rises=F Damp=F
 DIIS: error= 1.59D-02 at cycle   3 NSaved=   3.
 NSaved= 3 IEnMin= 3 EnMin= -868.287235355121     IErMin= 3 ErrMin= 1.59D-02
 ErrMax= 1.59D-02  0.00D+00 EMaxC= 1.00D-01 BMatC= 6.56D-02 BMatP= 2.88D-01
 IDIUse=3 WtCom= 8.41D-01 WtEn= 1.59D-01
 Coeff-Com: -0.225D-01 0.306D+00 0.717D+00
 Coeff-En:   0.000D+00 0.686D-01 0.931D+00
 Coeff:     -0.189D-01 0.268D+00 0.751D+00
 Gap=     0.424 Goal=   None    Shift=    0.000
 RMSDP=6.80D-04 MaxDP=2.95D-02 DE=-1.67D-01 OVMax= 4.51D-02

 Cycle   4  Pass 0  IDiag  1:
 RMSU=  3.84D-04    CP:  9.54D-01  8.97D-01  7.69D-01
 E= -868.333848654822     Delta-E=       -0.046613299701 Rises=F Damp=F
 DIIS: error= 3.12D-03 at cycle   4 NSaved=   4.
 NSaved= 4 IEnMin= 4 EnMin= -868.333848654822     IErMin= 4 ErrMin= 3.12D-03
 ErrMax= 3.12D-03  0.00D+00 EMaxC= 1.00D-01 BMatC= 2.45D-03 BMatP= 6.56D-02
 IDIUse=3 WtCom= 9.69D-01 WtEn= 3.12D-02
 Coeff-Com: -0.124D-01 0.478D-01 0.239D+00 0.726D+00
 Coeff-En:   0.000D+00 0.000D+00 0.000D+00 0.100D+01
 Coeff:     -0.120D-01 0.463D-01 0.231D+00 0.735D+00
 Gap=     0.411 Goal=   None    Shift=    0.000
 RMSDP=1.67D-04 MaxDP=6.07D-03 DE=-4.66D-02 OVMax= 9.53D-03

 Cycle   5  Pass 0  IDiag  1:
 RMSU=  1.12D-04    CP:  9.53D-01  9.00D-01  8.33D-01  8.29D-01
 E= -868.335997412045     Delta-E=       -0.002148757223 Rises=F Damp=F
 DIIS: error= 4.75D-04 at cycle   5 NSaved=   5.
 NSaved= 5 IEnMin= 5 EnMin= -868.335997412045     IErMin= 5 ErrMin= 4.75D-04
 ErrMax= 4.75D-04  0.00D+00 EMaxC= 1.00D-01 BMatC= 8.26D-05 BMatP= 2.45D-03
 IDIUse=3 WtCom= 9.95D-01 WtEn= 4.75D-03
 Coeff-Com:  0.193D-02-0.237D-01-0.631D-01 0.137D-01 0.107D+01
 Coeff-En:   0.000D+00 0.000D+00 0.000D+00 0.000D+00 0.100D+01
 Coeff:      0.192D-02-0.236D-01-0.628D-01 0.136D-01 0.107D+01
 Gap=     0.413 Goal=   None    Shift=    0.000
 RMSDP=5.86D-05 MaxDP=1.77D-03 DE=-2.15D-03 OVMax= 4.48D-03

 Cycle   6  Pass 0  IDiag  1:
 RMSU=  2.88D-05    CP:  9.53D-01  9.04D-01  8.43D-01  9.28D-01  1.21D+00
 E= -868.336166467366     Delta-E=       -0.000169055320 Rises=F Damp=F
 DIIS: error= 2.94D-04 at cycle   6 NSaved=   6.
 NSaved= 6 IEnMin= 6 EnMin= -868.336166467366     IErMin= 6 ErrMin= 2.94D-04
 ErrMax= 2.94D-04  0.00D+00 EMaxC= 1.00D-01 BMatC= 1.05D-05 BMatP= 8.26D-05
 IDIUse=3 WtCom= 9.97D-01 WtEn= 2.94D-03
 Coeff-Com:  0.131D-02-0.787D-02-0.312D-01-0.620D-01 0.962D-01 0.100D+01
 Coeff-En:   0.000D+00 0.000D+00 0.000D+00 0.000D+00 0.000D+00 0.100D+01
 Coeff:      0.131D-02-0.785D-02-0.311D-01-0.618D-01 0.959D-01 0.100D+01
 Gap=     0.413 Goal=   None    Shift=    0.000
 RMSDP=2.28D-05 MaxDP=6.54D-04 DE=-1.69D-04 OVMax= 1.85D-03

 Cycle   7  Pass 0  IDiag  1:
 RMSU=  1.10D-05    CP:  9.53D-01  9.04D-01  8.47D-01  9.48D-01  1.35D+00
                    CP:  1.25D+00
 E= -868.336196730192     Delta-E=       -0.000030262826 Rises=F Damp=F
 DIIS: error= 1.68D-04 at cycle   7 NSaved=   7.
 NSaved= 7 IEnMin= 7 EnMin= -868.336196730192     IErMin= 7 ErrMin= 1.68D-04
 ErrMax= 1.68D-04  0.00D+00 EMaxC= 1.00D-01 BMatC= 2.12D-06 BMatP= 1.05D-05
 IDIUse=3 WtCom= 9.98D-01 WtEn= 1.68D-03
 Coeff-Com: -0.168D-03 0.265D-02 0.652D-02-0.251D-02-0.148D+00 0.501D-01
 Coeff-Com:  0.109D+01
 Coeff-En:   0.000D+00 0.000D+00 0.000D+00 0.000D+00 0.000D+00 0.000D+00
 Coeff-En:   0.100D+01
 Coeff:     -0.167D-03 0.265D-02 0.650D-02-0.251D-02-0.148D+00 0.500D-01
 Coeff:      0.109D+01
 Gap=     0.413 Goal=   None    Shift=    0.000
 RMSDP=1.12D-05 MaxDP=4.74D-04 DE=-3.03D-05 OVMax= 1.35D-03

 Cycle   8  Pass 0  IDiag  1:
 RMSU=  5.56D-06    CP:  9.53D-01  9.05D-01  8.46D-01  9.55D-01  1.39D+00
                    CP:  1.50D+00  1.34D+00
 E= -868.336205195564     Delta-E=       -0.000008465372 Rises=F Damp=F
 DIIS: error= 8.93D-05 at cycle   8 NSaved=   8.
 NSaved= 8 IEnMin= 8 EnMin= -868.336205195564     IErMin= 8 ErrMin= 8.93D-05
 ErrMax= 8.93D-05  0.00D+00 EMaxC= 1.00D-01 BMatC= 5.34D-07 BMatP= 2.12D-06
 IDIUse=1 WtCom= 1.00D+00 WtEn= 0.00D+00
 Coeff-Com: -0.323D-03 0.217D-02 0.826D-02 0.160D-01-0.341D-01-0.240D+00
 Coeff-Com:  0.482D-01 0.120D+01
 Coeff:     -0.323D-03 0.217D-02 0.826D-02 0.160D-01-0.341D-01-0.240D+00
 Coeff:      0.482D-01 0.120D+01
 Gap=     0.413 Goal=   None    Shift=    0.000
 RMSDP=7.20D-06 MaxDP=2.11D-04 DE=-8.47D-06 OVMax= 8.26D-04

 Initial convergence to 1.0D-05 achieved.  Increase integral accuracy.
 Cycle   9  Pass 1  IDiag  1:
 E= -868.336203663568     Delta-E=        0.000001531996 Rises=F Damp=F
 DIIS: error= 3.31D-05 at cycle   1 NSaved=   1.
 NSaved= 1 IEnMin= 1 EnMin= -868.336203663568     IErMin= 1 ErrMin= 3.31D-05
 ErrMax= 3.31D-05  0.00D+00 EMaxC= 1.00D-01 BMatC= 2.37D-07 BMatP= 2.37D-07
 IDIUse=1 WtCom= 1.00D+00 WtEn= 0.00D+00
 Coeff-Com:  0.100D+01
 Coeff:      0.100D+01
 Gap=     0.413 Goal=   None    Shift=    0.000
 RMSDP=7.20D-06 MaxDP=2.11D-04 DE= 1.53D-06 OVMax= 2.30D-04

 Cycle  10  Pass 1  IDiag  1:
 RMSU=  1.31D-05    CP:  1.00D+00
 E= -868.336204060052     Delta-E=       -0.000000396485 Rises=F Damp=F
 DIIS: error= 2.27D-05 at cycle   2 NSaved=   2.
 NSaved= 2 IEnMin= 2 EnMin= -868.336204060052     IErMin= 2 ErrMin= 2.27D-05
 ErrMax= 2.27D-05  0.00D+00 EMaxC= 1.00D-01 BMatC= 3.62D-08 BMatP= 2.37D-07
 IDIUse=1 WtCom= 1.00D+00 WtEn= 0.00D+00
 Coeff-Com:  0.428D-02 0.996D+00
 Coeff:      0.428D-02 0.996D+00
 Gap=     0.413 Goal=   None    Shift=    0.000
 RMSDP=1.35D-06 MaxDP=3.70D-05 DE=-3.96D-07 OVMax= 1.36D-04

 Cycle  11  Pass 1  IDiag  1:
 RMSU=  1.16D-06    CP:  1.00D+00  1.05D+00
 E= -868.336204180544     Delta-E=       -0.000000120492 Rises=F Damp=F
 DIIS: error= 1.49D-05 at cycle   3 NSaved=   3.
 NSaved= 3 IEnMin= 3 EnMin= -868.336204180544     IErMin= 3 ErrMin= 1.49D-05
 ErrMax= 1.49D-05  0.00D+00 EMaxC= 1.00D-01 BMatC= 1.77D-08 BMatP= 3.62D-08
 IDIUse=1 WtCom= 1.00D+00 WtEn= 0.00D+00
 Coeff-Com: -0.110D+00 0.238D+00 0.871D+00
 Coeff:     -0.110D+00 0.238D+00 0.871D+00
 Gap=     0.413 Goal=   None    Shift=    0.000
 RMSDP=7.97D-07 MaxDP=2.37D-05 DE=-1.20D-07 OVMax= 9.97D-05

 Cycle  12  Pass 1  IDiag  1:
 RMSU=  6.16D-07    CP:  1.00D+00  1.07D+00  1.39D+00
 E= -868.336204237582     Delta-E=       -0.000000057037 Rises=F Damp=F
 DIIS: error= 8.63D-06 at cycle   4 NSaved=   4.
 NSaved= 4 IEnMin= 4 EnMin= -868.336204237582     IErMin= 4 ErrMin= 8.63D-06
 ErrMax= 8.63D-06  0.00D+00 EMaxC= 1.00D-01 BMatC= 5.97D-09 BMatP= 1.77D-08
 IDIUse=1 WtCom= 1.00D+00 WtEn= 0.00D+00
 Coeff-Com:  0.174D-02-0.557D+00-0.350D-01 0.159D+01
 Coeff:      0.174D-02-0.557D+00-0.350D-01 0.159D+01
 Gap=     0.413 Goal=   None    Shift=    0.000
 RMSDP=1.09D-06 MaxDP=2.96D-05 DE=-5.70D-08 OVMax= 1.28D-04

 Cycle  13  Pass 1  IDiag  1:
 RMSU=  2.34D-07    CP:  1.00D+00  1.08D+00  2.22D+00  1.76D+00
 E= -868.336204275168     Delta-E=       -0.000000037586 Rises=F Damp=F
 DIIS: error= 2.11D-06 at cycle   5 NSaved=   5.
 NSaved= 5 IEnMin= 5 EnMin= -868.336204275168     IErMin= 5 ErrMin= 2.11D-06
 ErrMax= 2.11D-06  0.00D+00 EMaxC= 1.00D-01 BMatC= 6.16D-10 BMatP= 5.97D-09
 IDIUse=1 WtCom= 1.00D+00 WtEn= 0.00D+00
 Coeff-Com:  0.135D-01-0.230D+00-0.109D+00 0.567D+00 0.758D+00
 Coeff:      0.135D-01-0.230D+00-0.109D+00 0.567D+00 0.758D+00
 Gap=     0.413 Goal=   None    Shift=    0.000
 RMSDP=1.95D-07 MaxDP=5.66D-06 DE=-3.76D-08 OVMax= 2.27D-05

 Cycle  14  Pass 1  IDiag  1:
 RMSU=  8.44D-08    CP:  1.00D+00  1.08D+00  2.35D+00  1.90D+00  1.04D+00
 E= -868.336204276667     Delta-E=       -0.000000001499 Rises=F Damp=F
 DIIS: error= 4.13D-07 at cycle   6 NSaved=   6.
 NSaved= 6 IEnMin= 6 EnMin= -868.336204276667     IErMin= 6 ErrMin= 4.13D-07
 ErrMax= 4.13D-07  0.00D+00 EMaxC= 1.00D-01 BMatC= 4.56D-11 BMatP= 6.16D-10
 IDIUse=1 WtCom= 1.00D+00 WtEn= 0.00D+00
 Coeff-Com: -0.295D-03 0.611D-01 0.643D-02-0.175D+00-0.930D-02 0.112D+01
 Coeff:     -0.295D-03 0.611D-01 0.643D-02-0.175D+00-0.930D-02 0.112D+01
 Gap=     0.413 Goal=   None    Shift=    0.000
 RMSDP=5.46D-08 MaxDP=2.14D-06 DE=-1.50D-09 OVMax= 5.56D-06

 Cycle  15  Pass 1  IDiag  1:
 RMSU=  3.00D-08    CP:  1.00D+00  1.08D+00  2.36D+00  1.92D+00  1.19D+00
                    CP:  1.23D+00
 E= -868.336204276795     Delta-E=       -0.000000000128 Rises=F Damp=F
 DIIS: error= 1.51D-07 at cycle   7 NSaved=   7.
 NSaved= 7 IEnMin= 7 EnMin= -868.336204276795     IErMin= 7 ErrMin= 1.51D-07
 ErrMax= 1.51D-07  0.00D+00 EMaxC= 1.00D-01 BMatC= 8.64D-12 BMatP= 4.56D-11
 IDIUse=1 WtCom= 1.00D+00 WtEn= 0.00D+00
 Coeff-Com: -0.280D-02 0.625D-01 0.234D-01-0.160D+00-0.151D+00 0.293D+00
 Coeff-Com:  0.934D+00
 Coeff:     -0.280D-02 0.625D-01 0.234D-01-0.160D+00-0.151D+00 0.293D+00
 Coeff:      0.934D+00
 Gap=     0.413 Goal=   None    Shift=    0.000
 RMSDP=2.31D-08 MaxDP=7.24D-07 DE=-1.28D-10 OVMax= 1.41D-06

 Cycle  16  Pass 1  IDiag  1:
 RMSU=  1.06D-08    CP:  1.00D+00  1.08D+00  2.36D+00  1.93D+00  1.24D+00
                    CP:  1.42D+00  1.24D+00
 E= -868.336204276789     Delta-E=        0.000000000006 Rises=F Damp=F
 DIIS: error= 3.62D-08 at cycle   8 NSaved=   8.
 NSaved= 8 IEnMin= 7 EnMin= -868.336204276795     IErMin= 8 ErrMin= 3.62D-08
 ErrMax= 3.62D-08  0.00D+00 EMaxC= 1.00D-01 BMatC= 4.11D-13 BMatP= 8.64D-12
 IDIUse=1 WtCom= 1.00D+00 WtEn= 0.00D+00
 Coeff-Com: -0.656D-03 0.119D-01 0.511D-02-0.296D-01-0.355D-01 0.190D-01
 Coeff-Com:  0.228D+00 0.802D+00
 Coeff:     -0.656D-03 0.119D-01 0.511D-02-0.296D-01-0.355D-01 0.190D-01
 Coeff:      0.228D+00 0.802D+00
 Gap=     0.413 Goal=   None    Shift=    0.000
 RMSDP=3.17D-09 MaxDP=9.91D-08 DE= 6.14D-12 OVMax= 2.47D-07

 SCF Done:  E(RHF) =  -868.336204277     A.U. after   16 cycles
            NFock= 16  Conv=0.32D-08     -V/T= 2.0030
 KE= 8.656986834887D+02 PE=-4.304349281028D+03 EE= 1.434331282103D+03
 Leave Link  502 at Thu May  6 11:24:42 2021, MaxMem=   524288000 cpu:             134.3 elap:              67.3
 (Enter /opt/gaussian/g16_legacy/l801.exe)
 ExpMin= 1.61D-01 ExpMax= 5.48D+03 ExpMxC= 8.25D+02 IAcc=3 IRadAn=         5 AccDes= 0.00D+00
 HarFok:  IExCor=  205 AccDes= 0.00D+00 IRadAn=         5 IDoV=-2 UseB2=F ITyADJ=14
 ICtDFT= 12500011 ScaDFX=  1.000000  1.000000  1.000000  1.000000
 Largest valence mixing into a core orbital is  1.94D-04
 Largest core mixing into a valence orbital is  4.01D-05
 Range of M.O.s used for correlation:    19   290
 NBasis=   290 NAE=    64 NBE=    64 NFC=    18 NFV=     0
 NROrb=    272 NOA=    46 NOB=    46 NVA=   226 NVB=   226
 Leave Link  801 at Thu May  6 11:24:43 2021, MaxMem=   524288000 cpu:               1.7 elap:               0.9
 (Enter /opt/gaussian/g16_legacy/l906.exe)
 FulOut=F Deriv=F AODrv=F NAtomX=    28
   MMem=          85  MDisk=          46 MDiskD=          46
  W3Min=     3014840 MinDsk=     3114491 NBas6D=         290
 NBas2D=       42681    NTT=       42195    LW2=     2000000
    MDV=   523933685 MDiskM=       24996 NBas2p=       28378
 Fully direct method using O(OVN) memory.
 IMap=   1   2   3   4   5   6   7   8   9  10  11  12  13  14  15  16  17  18  19  20
 IMap=  21  22  23  24  25  26  27  28  29  30  31  32  33  34  35  36  37  38  39  40
 IMap=  41  42  43  44  45  46
 JobTyp=1 Pass  1:  I=   1 to  46 NPSUse=  2 ParTrn=T ParDer=T DoDerP=F.
 Spin components of T(2) and E(2):
     alpha-alpha T2 =       0.1271845435D+00 E2=     -0.3598291185D+00
     alpha-beta  T2 =       0.6482264747D+00 E2=     -0.1881604680D+01
     beta-beta   T2 =       0.1271845435D+00 E2=     -0.3598291185D+00
 The integrals were generated   1 times.
 ANorm=    0.1379346063D+01
 E2 =    -0.2601262916D+01 EUMP2 =    -0.87093746719324D+03
 Leave Link  906 at Thu May  6 11:26:14 2021, MaxMem=   524288000 cpu:             180.7 elap:              91.0
 (Enter /opt/gaussian/g16_legacy/l601.exe)
 Copying SCF densities to generalized density rwf, IOpCl= 0 IROHF=0.

 **********************************************************************

            Population analysis using the SCF density.

 **********************************************************************

 Orbital symmetries:
       Occupied  (A) (A) (A) (A) (A) (A) (A) (A) (A) (A) (A) (A)
                 (A) (A) (A) (A) (A) (A) (A) (A) (A) (A) (A) (A)
                 (A) (A) (A) (A) (A) (A) (A) (A) (A) (A) (A) (A)
                 (A) (A) (A) (A) (A) (A) (A) (A) (A) (A) (A) (A)
                 (A) (A) (A) (A) (A) (A) (A) (A) (A) (A) (A) (A)
                 (A) (A) (A) (A)
       Virtual   (A) (A) (A) (A) (A) (A) (A) (A) (A) (A) (A) (A)
                 (A) (A) (A) (A) (A) (A) (A) (A) (A) (A) (A) (A)
                 (A) (A) (A) (A) (A) (A) (A) (A) (A) (A) (A) (A)
                 (A) (A) (A) (A) (A) (A) (A) (A) (A) (A) (A) (A)
                 (A) (A) (A) (A) (A) (A) (A) (A) (A) (A) (A) (A)
                 (A) (A) (A) (A) (A) (A) (A) (A) (A) (A) (A) (A)
                 (A) (A) (A) (A) (A) (A) (A) (A) (A) (A) (A) (A)
                 (A) (A) (A) (A) (A) (A) (A) (A) (A) (A) (A) (A)
                 (A) (A) (A) (A) (A) (A) (A) (A) (A) (A) (A) (A)
                 (A) (A) (A) (A) (A) (A) (A) (A) (A) (A) (A) (A)
                 (A) (A) (A) (A) (A) (A) (A) (A) (A) (A) (A) (A)
                 (A) (A) (A) (A) (A) (A) (A) (A) (A) (A) (A) (A)
                 (A) (A) (A) (A) (A) (A) (A) (A) (A) (A) (A) (A)
                 (A) (A) (A) (A) (A) (A) (A) (A) (A) (A) (A) (A)
                 (A) (A) (A) (A) (A) (A) (A) (A) (A) (A) (A) (A)
                 (A) (A) (A) (A) (A) (A) (A) (A) (A) (A) (A) (A)
                 (A) (A) (A) (A) (A) (A) (A) (A) (A) (A) (A) (A)
                 (A) (A) (A) (A) (A) (A) (A) (A) (A) (A) (A) (A)
                 (A) (A) (A) (A) (A) (A) (A) (A) (A) (A)
 The electronic state is 1-A.
 Alpha  occ. eigenvalues --  -20.61206 -20.61200 -20.61150 -20.61140 -15.86265
 Alpha  occ. eigenvalues --  -15.86211 -11.31779 -11.31761 -11.28425 -11.28374
 Alpha  occ. eigenvalues --  -11.28362 -11.28332 -11.28207 -11.28206 -11.27547
 Alpha  occ. eigenvalues --  -11.27464 -11.27405 -11.27357  -1.60280  -1.60219
 Alpha  occ. eigenvalues --   -1.39828  -1.39767  -1.20002  -1.19969  -1.09399
 Alpha  occ. eigenvalues --   -1.09329  -1.05444  -1.05380  -0.96166  -0.96148
 Alpha  occ. eigenvalues --   -0.86915  -0.86728  -0.83009  -0.82952  -0.78050
 Alpha  occ. eigenvalues --   -0.77932  -0.72480  -0.72427  -0.71608  -0.71544
 Alpha  occ. eigenvalues --   -0.71140  -0.71081  -0.65809  -0.65638  -0.65578
 Alpha  occ. eigenvalues --   -0.65169  -0.62866  -0.62609  -0.55984  -0.55914
 Alpha  occ. eigenvalues --   -0.53880  -0.53705  -0.53542  -0.53333  -0.49255
 Alpha  occ. eigenvalues --   -0.49223  -0.49199  -0.49166  -0.45199  -0.45131
 Alpha  occ. eigenvalues --   -0.38124  -0.37931  -0.37017  -0.36939
 Alpha virt. eigenvalues --    0.04406   0.04692   0.10379   0.10590   0.15710
 Alpha virt. eigenvalues --    0.16270   0.19213   0.21844   0.25228   0.27126
 Alpha virt. eigenvalues --    0.27697   0.28719   0.29597   0.31143   0.31661
 Alpha virt. eigenvalues --    0.33314   0.33971   0.35296   0.36196   0.36571
 Alpha virt. eigenvalues --    0.42405   0.42855   0.43588   0.44448   0.45564
 Alpha virt. eigenvalues --    0.45895   0.48770   0.49031   0.50352   0.51448
 Alpha virt. eigenvalues --    0.55975   0.56917   0.66649   0.66737   0.68234
 Alpha virt. eigenvalues --    0.68289   0.69387   0.69598   0.70884   0.71844
 Alpha virt. eigenvalues --    0.75185   0.77387   0.77773   0.78164   0.78179
 Alpha virt. eigenvalues --    0.78233   0.78687   0.78960   0.79775   0.79962
 Alpha virt. eigenvalues --    0.80486   0.80729   0.81463   0.83824   0.85090
 Alpha virt. eigenvalues --    0.85298   0.85937   0.87236   0.88124   0.92017
 Alpha virt. eigenvalues --    0.93159   0.93433   0.95327   0.98339   1.00023
 Alpha virt. eigenvalues --    1.00619   1.01517   1.01561   1.03839   1.04202
 Alpha virt. eigenvalues --    1.06169   1.06525   1.07462   1.07995   1.08018
 Alpha virt. eigenvalues --    1.08305   1.08626   1.11263   1.13524   1.15134
 Alpha virt. eigenvalues --    1.15953   1.16278   1.17227   1.18596   1.19404
 Alpha virt. eigenvalues --    1.21072   1.22552   1.23133   1.23221   1.24649
 Alpha virt. eigenvalues --    1.26953   1.27308   1.27900   1.27981   1.30114
 Alpha virt. eigenvalues --    1.30558   1.30784   1.33316   1.33639   1.34170
 Alpha virt. eigenvalues --    1.39774   1.41799   1.46066   1.46382   1.46438
 Alpha virt. eigenvalues --    1.46887   1.52051   1.52184   1.52848   1.53512
 Alpha virt. eigenvalues --    1.59700   1.59860   1.64925   1.64970   1.65679
 Alpha virt. eigenvalues --    1.65970   1.66512   1.66674   1.67304   1.69443
 Alpha virt. eigenvalues --    1.71988   1.71997   1.72551   1.72630   1.73029
 Alpha virt. eigenvalues --    1.73261   1.74878   1.75007   1.96522   1.96578
 Alpha virt. eigenvalues --    1.98818   1.98874   1.99317   1.99451   2.03705
 Alpha virt. eigenvalues --    2.04021   2.04253   2.04482   2.09654   2.09720
 Alpha virt. eigenvalues --    2.11856   2.12016   2.12631   2.13076   2.20898
 Alpha virt. eigenvalues --    2.21176   2.21244   2.21664   2.24160   2.24390
 Alpha virt. eigenvalues --    2.26653   2.26795   2.32309   2.32939   2.35328
 Alpha virt. eigenvalues --    2.35839   2.37100   2.37180   2.42296   2.42470
 Alpha virt. eigenvalues --    2.42847   2.42925   2.43910   2.44058   2.45005
 Alpha virt. eigenvalues --    2.45475   2.46290   2.46339   2.57420   2.57670
 Alpha virt. eigenvalues --    2.57960   2.58037   2.58909   2.59033   2.69635
 Alpha virt. eigenvalues --    2.69835   2.80684   2.81026   2.83021   2.83074
 Alpha virt. eigenvalues --    2.91011   2.91203   2.91351   2.91368   2.91805
 Alpha virt. eigenvalues --    2.92366   2.99274   2.99307   3.04087   3.04230
 Alpha virt. eigenvalues --    3.04275   3.04401   3.06372   3.06553   3.09924
 Alpha virt. eigenvalues --    3.10279   3.22932   3.23107   3.24098   3.24126
 Alpha virt. eigenvalues --    3.27132   3.27208   3.42610   3.42678   3.52348
 Alpha virt. eigenvalues --    3.52413   3.76334   3.76423   4.12613   4.12627
 Alpha virt. eigenvalues --    4.28125   4.28287   4.37425   4.37496   4.47167
 Alpha virt. eigenvalues --    4.47875   4.49950   4.50529   4.52256   4.52643
 Alpha virt. eigenvalues --    4.71283   4.71641   4.75996   4.76264   5.08291
 Alpha virt. eigenvalues --    5.08373
          Condensed to atoms (all electrons):
               1          2          3          4          5          6
     1  C    4.884294   0.543582  -0.045303  -0.029023  -0.045067   0.536664
     2  C    0.543582   4.929092   0.521965  -0.039730  -0.030275  -0.043056
     3  C   -0.045303   0.521965   4.917427   0.547648  -0.052694  -0.030309
     4  C   -0.029023  -0.039730   0.547648   4.821169   0.548728  -0.040056
     5  C   -0.045067  -0.030275  -0.052694   0.548728   4.916715   0.522095
     6  C    0.536664  -0.043056  -0.030309  -0.040056   0.522095   4.947840
     7  H    0.379956  -0.026315   0.002202   0.000189   0.002250  -0.029979
     8  H   -0.027628   0.382493  -0.026818   0.001553   0.000196   0.002319
     9  H    0.001966  -0.023766   0.368070  -0.019526   0.002555  -0.000061
    10  H    0.001916  -0.000070   0.002571  -0.018949   0.368089  -0.024358
    11  H   -0.029840   0.002328   0.000197   0.001526  -0.026395   0.382765
    12  N    0.000004   0.001523  -0.044452   0.243751  -0.044620   0.001547
    13  O   -0.000003  -0.000028   0.003708  -0.088178   0.004318   0.000792
    14  O   -0.000004   0.000781   0.004180  -0.087930   0.003722  -0.000028
    15  C   -0.000084  -0.000001   0.000000  -0.000000   0.000001   0.000026
    16  C   -0.001861  -0.000003   0.000005  -0.000000   0.000008  -0.001559
    17  C    0.000183  -0.000010   0.000000  -0.000002  -0.000001   0.000056
    18  C    0.000022   0.000000  -0.000000  -0.000000   0.000000   0.000008
    19  C    0.000001   0.000000  -0.000000   0.000000   0.000000   0.000000
    20  C   -0.000001  -0.000000   0.000000  -0.000000  -0.000000  -0.000000
    21  H   -0.000003   0.000000   0.000000  -0.000000  -0.000000  -0.000001
    22  H    0.000751  -0.000003  -0.000012  -0.000010   0.000071   0.002497
    23  H    0.000146   0.000016  -0.000001  -0.000001   0.000010   0.000115
    24  H   -0.000000   0.000000   0.000000   0.000000  -0.000000  -0.000000
    25  H    0.000000  -0.000000  -0.000000  -0.000000  -0.000000   0.000000
    26  N   -0.000000  -0.000000   0.000000   0.000000  -0.000000  -0.000000
    27  O   -0.000000   0.000000   0.000000   0.000000  -0.000000  -0.000000
    28  O   -0.000000   0.000000   0.000000  -0.000000   0.000000   0.000000
               7          8          9         10         11         12
     1  C    0.379956  -0.027628   0.001966   0.001916  -0.029840   0.000004
     2  C   -0.026315   0.382493  -0.023766  -0.000070   0.002328   0.001523
     3  C    0.002202  -0.026818   0.368070   0.002571   0.000197  -0.044452
     4  C    0.000189   0.001553  -0.019526  -0.018949   0.001526   0.243751
     5  C    0.002250   0.000196   0.002555   0.368089  -0.026395  -0.044620
     6  C   -0.029979   0.002319  -0.000061  -0.024358   0.382765   0.001547
     7  H    0.448227  -0.001200  -0.000070  -0.000069  -0.001323   0.000002
     8  H   -0.001200   0.442978  -0.001090   0.000007  -0.000093  -0.000049
     9  H   -0.000070  -0.001090   0.388892  -0.000074   0.000007  -0.005331
    10  H   -0.000069   0.000007  -0.000074   0.390380  -0.001089  -0.005385
    11  H   -0.001323  -0.000093   0.000007  -0.001089   0.453838  -0.000049
    12  N    0.000002  -0.000049  -0.005331  -0.005385  -0.000049   5.735346
    13  O    0.000000   0.000000   0.000049   0.009157  -0.000001   0.314618
    14  O    0.000000  -0.000001   0.009038   0.000049   0.000000   0.314898
    15  C    0.000314  -0.000000   0.000000   0.000000  -0.000007  -0.000000
    16  C    0.001380  -0.000003   0.000000   0.000000  -0.000082  -0.000000
    17  C    0.000124  -0.000001   0.000000   0.000000  -0.000006  -0.000000
    18  C   -0.000009   0.000000  -0.000000  -0.000000   0.000000  -0.000000
    19  C   -0.000002   0.000000  -0.000000  -0.000000   0.000000  -0.000000
    20  C    0.000001  -0.000000  -0.000000  -0.000000  -0.000000   0.000000
    21  H    0.000023  -0.000000  -0.000000  -0.000000  -0.000001  -0.000000
    22  H   -0.000260  -0.000000   0.000000  -0.000001   0.000787  -0.000000
    23  H   -0.000002  -0.000000  -0.000000   0.000000  -0.000003  -0.000000
    24  H   -0.000000   0.000000  -0.000000  -0.000000   0.000000   0.000000
    25  H    0.000000   0.000000  -0.000000   0.000000   0.000000  -0.000000
    26  N   -0.000000   0.000000  -0.000000   0.000000  -0.000000   0.000000
    27  O    0.000000  -0.000000   0.000000  -0.000000   0.000000  -0.000000
    28  O    0.000000  -0.000000   0.000000  -0.000000   0.000000  -0.000000
              13         14         15         16         17         18
     1  C   -0.000003  -0.000004  -0.000084  -0.001861   0.000183   0.000022
     2  C   -0.000028   0.000781  -0.000001  -0.000003  -0.000010   0.000000
     3  C    0.003708   0.004180   0.000000   0.000005   0.000000  -0.000000
     4  C   -0.088178  -0.087930  -0.000000  -0.000000  -0.000002  -0.000000
     5  C    0.004318   0.003722   0.000001   0.000008  -0.000001   0.000000
     6  C    0.000792  -0.000028   0.000026  -0.001559   0.000056   0.000008
     7  H    0.000000   0.000000   0.000314   0.001380   0.000124  -0.000009
     8  H    0.000000  -0.000001  -0.000000  -0.000003  -0.000001   0.000000
     9  H    0.000049   0.009038   0.000000   0.000000   0.000000  -0.000000
    10  H    0.009157   0.000049   0.000000   0.000000   0.000000  -0.000000
    11  H   -0.000001   0.000000  -0.000007  -0.000082  -0.000006   0.000000
    12  N    0.314618   0.314898  -0.000000  -0.000000  -0.000000  -0.000000
    13  O    8.302273  -0.087640  -0.000000  -0.000000   0.000000   0.000000
    14  O   -0.087640   8.300371   0.000000  -0.000000   0.000000   0.000000
    15  C   -0.000000   0.000000   4.884018   0.539240  -0.045197  -0.028855
    16  C   -0.000000  -0.000000   0.539240   4.946911   0.523013  -0.039937
    17  C    0.000000   0.000000  -0.045197   0.523013   4.921765   0.546039
    18  C    0.000000   0.000000  -0.028855  -0.039937   0.546039   4.824555
    19  C   -0.000000   0.000000  -0.045747  -0.029970  -0.052918   0.547720
    20  C    0.000000  -0.000000   0.542484  -0.043777  -0.030180  -0.040125
    21  H   -0.000000   0.000000   0.381182  -0.028743   0.002153   0.000223
    22  H    0.000000   0.000000  -0.029118   0.378433  -0.026389   0.001586
    23  H   -0.000000   0.000000   0.001918  -0.023607   0.367346  -0.019142
    24  H   -0.000000  -0.000000   0.001951  -0.000067   0.002565  -0.019526
    25  H    0.000000   0.000000  -0.027764   0.002306   0.000192   0.001554
    26  N   -0.000000  -0.000000   0.000021   0.001491  -0.044254   0.243199
    27  O    0.000000   0.000000  -0.000004  -0.000030   0.003732  -0.088025
    28  O    0.000000  -0.000000  -0.000003   0.000780   0.004146  -0.087979
              19         20         21         22         23         24
     1  C    0.000001  -0.000001  -0.000003   0.000751   0.000146  -0.000000
     2  C    0.000000  -0.000000   0.000000  -0.000003   0.000016   0.000000
     3  C   -0.000000   0.000000   0.000000  -0.000012  -0.000001   0.000000
     4  C    0.000000  -0.000000  -0.000000  -0.000010  -0.000001   0.000000
     5  C    0.000000  -0.000000  -0.000000   0.000071   0.000010  -0.000000
     6  C    0.000000  -0.000000  -0.000001   0.002497   0.000115  -0.000000
     7  H   -0.000002   0.000001   0.000023  -0.000260  -0.000002  -0.000000
     8  H    0.000000  -0.000000  -0.000000  -0.000000  -0.000000   0.000000
     9  H   -0.000000  -0.000000  -0.000000   0.000000  -0.000000  -0.000000
    10  H   -0.000000  -0.000000  -0.000000  -0.000001   0.000000  -0.000000
    11  H    0.000000  -0.000000  -0.000001   0.000787  -0.000003   0.000000
    12  N   -0.000000   0.000000  -0.000000  -0.000000  -0.000000   0.000000
    13  O   -0.000000   0.000000  -0.000000   0.000000  -0.000000  -0.000000
    14  O    0.000000  -0.000000   0.000000   0.000000   0.000000  -0.000000
    15  C   -0.045747   0.542484   0.381182  -0.029118   0.001918   0.001951
    16  C   -0.029970  -0.043777  -0.028743   0.378433  -0.023607  -0.000067
    17  C   -0.052918  -0.030180   0.002153  -0.026389   0.367346   0.002565
    18  C    0.547720  -0.040125   0.000223   0.001586  -0.019142  -0.019526
    19  C    4.918714   0.522836   0.002159   0.000215   0.002548   0.368260
    20  C    0.522836   4.931148  -0.027250   0.002288  -0.000065  -0.023955
    21  H    0.002159  -0.027250   0.448635  -0.001066  -0.000071  -0.000071
    22  H    0.000215   0.002288  -0.001066   0.451145  -0.000955   0.000007
    23  H    0.002548  -0.000065  -0.000071  -0.000955   0.387994  -0.000074
    24  H    0.368260  -0.023955  -0.000071   0.000007  -0.000074   0.390540
    25  H   -0.027042   0.382589  -0.001186  -0.000094   0.000007  -0.001098
    26  N   -0.044495   0.001496   0.000002  -0.000052  -0.005327  -0.005338
    27  O    0.004171   0.000781   0.000000   0.000000   0.000048   0.009082
    28  O    0.003716  -0.000028   0.000000  -0.000001   0.009083   0.000049
              25         26         27         28
     1  C    0.000000  -0.000000  -0.000000  -0.000000
     2  C   -0.000000  -0.000000   0.000000   0.000000
     3  C   -0.000000   0.000000   0.000000   0.000000
     4  C   -0.000000   0.000000   0.000000  -0.000000
     5  C   -0.000000  -0.000000  -0.000000   0.000000
     6  C    0.000000  -0.000000  -0.000000   0.000000
     7  H    0.000000  -0.000000   0.000000   0.000000
     8  H    0.000000   0.000000  -0.000000  -0.000000
     9  H   -0.000000  -0.000000   0.000000   0.000000
    10  H    0.000000   0.000000  -0.000000  -0.000000
    11  H    0.000000  -0.000000   0.000000   0.000000
    12  N   -0.000000   0.000000  -0.000000  -0.000000
    13  O    0.000000  -0.000000   0.000000   0.000000
    14  O    0.000000  -0.000000   0.000000  -0.000000
    15  C   -0.027764   0.000021  -0.000004  -0.000003
    16  C    0.002306   0.001491  -0.000030   0.000780
    17  C    0.000192  -0.044254   0.003732   0.004146
    18  C    0.001554   0.243199  -0.088025  -0.087979
    19  C   -0.027042  -0.044495   0.004171   0.003716
    20  C    0.382589   0.001496   0.000781  -0.000028
    21  H   -0.001186   0.000002   0.000000   0.000000
    22  H   -0.000094  -0.000052   0.000000  -0.000001
    23  H    0.000007  -0.005327   0.000048   0.009083
    24  H   -0.001098  -0.005338   0.009082   0.000049
    25  H    0.445455  -0.000049  -0.000001   0.000000
    26  N   -0.000049   5.736366   0.314521   0.314576
    27  O   -0.000001   0.314521   8.302467  -0.087663
    28  O    0.000000   0.314576  -0.087663   8.301178
 Mulliken charges:
               1
     1  C   -0.170668
     2  C   -0.218523
     3  C   -0.168386
     4  C    0.158843
     5  C   -0.169704
     6  C   -0.227315
     7  H    0.224561
     8  H    0.227338
     9  H    0.279340
    10  H    0.277825
    11  H    0.217439
    12  N    0.488198
    13  O   -0.459063
    14  O   -0.457436
    15  C   -0.174375
    16  C   -0.223930
    17  C   -0.172359
    18  C    0.158691
    19  C   -0.170164
    20  C   -0.218241
    21  H    0.224015
    22  H    0.220181
    23  H    0.280018
    24  H    0.277676
    25  H    0.225130
    26  N    0.487840
    27  O   -0.459079
    28  O   -0.457854
 Sum of Mulliken charges =  -0.00000
 Mulliken charges with hydrogens summed into heavy atoms:
               1
     1  C    0.053893
     2  C    0.008815
     3  C    0.110954
     4  C    0.158843
     5  C    0.108122
     6  C   -0.009876
    12  N    0.488198
    13  O   -0.459063
    14  O   -0.457436
    15  C    0.049640
    16  C   -0.003749
    17  C    0.107660
    18  C    0.158691
    19  C    0.107513
    20  C    0.006888
    26  N    0.487840
    27  O   -0.459079
    28  O   -0.457854
 Electronic spatial extent (au):  <R**2>=           7705.2303
 Charge=             -0.0000 electrons
 Dipole moment (field-independent basis, Debye):
    X=              2.9023    Y=             -7.8857    Z=              1.1640  Tot=              8.4830
 Quadrupole moment (field-independent basis, Debye-Ang):
   XX=           -135.7091   YY=           -109.4434   ZZ=           -100.4889
   XY=             -8.6193   XZ=             -5.0992   YZ=              1.7768
 Traceless Quadrupole moment (field-independent basis, Debye-Ang):
   XX=            -20.4953   YY=              5.7704   ZZ=             14.7249
   XY=             -8.6193   XZ=             -5.0992   YZ=              1.7768
 Octapole moment (field-independent basis, Debye-Ang**2):
  XXX=            171.5421  YYY=            -29.6591  ZZZ=             11.2218  XYY=             -7.6387
  XXY=           -133.0123  XXZ=             28.7362  XZZ=             -8.6839  YZZ=              8.9797
  YYZ=             -6.5431  XYZ=            -13.7864
 Hexadecapole moment (field-independent basis, Debye-Ang**3):
 XXXX=          -9127.7643 YYYY=          -1434.3544 ZZZZ=           -471.4579 XXXY=            -44.5185
 XXXZ=            -97.3244 YYYX=           -151.6660 YYYZ=              9.6977 ZZZX=             -6.1018
 ZZZY=              8.1668 XXYY=          -1783.6328 XXZZ=          -1482.5374 YYZZ=           -318.4395
 XXYZ=             -4.5123 YYXZ=             18.8582 ZZXY=             38.7864
 N-N= 1.135983111160D+03 E-N=-4.304349287371D+03  KE= 8.656986834887D+02
 Leave Link  601 at Thu May  6 11:26:14 2021, MaxMem=   524288000 cpu:               0.5 elap:               0.5
 (Enter /opt/gaussian/g16_legacy/l9999.exe)
 1\1\GINC-TRUENO91\SP\RMP2-FC\6-31G(d)\C12H10N2O4\JRAMOS\06-May-2021\0\
 \#p 6-31g* mp2\\Input file generated by CHIRIPA (05-May-2021 14:57:25)
 \\0,1\C,0,1.914143,0.,0.\C,0,1.214143,1.211,0.\C,0,-0.183857,1.223,0.\
 C,0,-0.852857,0.,0.\C,0,-0.183857,-1.223,0.\C,0,1.214143,-1.211,0.\H,0
 ,3.000143,0.,0.\H,0,1.755143,2.153,0.\H,0,-0.750857,2.146,0.\H,0,-0.75
 0857,-2.146,0.\H,0,1.755143,-2.153,0.\N,0,-2.332857,0.,0.\O,0,-2.89885
 7,-1.091,0.\O,0,-2.898857,1.091,0.\C,0,5.412515,-1.564379,-2.6653\C,0,
 4.023932,-1.432234,-2.769689\C,0,3.449779,-0.842839,-3.899959\C,0,4.29
 7823,-0.394603,-4.911491\C,0,5.684882,-0.51202,-4.836864\C,0,6.237104,
 -1.104661,-3.697401\H,0,5.850012,-2.023496,-1.783709\H,0,3.381096,-1.7
 88352,-1.969698\H,0,2.377944,-0.727969,-4.006696\H,0,6.299883,-0.14748
 ,-5.650684\H,0,7.315827,-1.205969,-3.619048\N,0,3.701601,0.231081,-6.1
 12923\O,0,4.47052,0.61792,-6.990282\O,0,2.476654,0.322807,-6.154498\\V
 ersion=EM64L-G16RevA.03\State=1-A\HF=-868.3362043\MP2=-870.9374672\RMS
 D=3.172e-09\PG=C01 [X(C12H10N2O4)]\\@


 YOU CAN WIPE THE SLATE CLEAN, BUT YOU'LL STILL
 HAVE TO EAT A LITTLE CHALK DUST.
 Job cpu time:       0 days  0 hours  5 minutes 32.1 seconds.
 Elapsed time:       0 days  0 hours  2 minutes 48.0 seconds.
 File lengths (MBytes):  RWF=     50 Int=      0 D2E=      0 Chk=      7 Scr=      1
 Normal termination of Gaussian 16 at Thu May  6 11:26:15 2021.
