 Entering Gaussian System, Link 0=/opt/gaussian/g16_legacy/g16
 Input=gaussian_04929_1_1.com
 Output=gaussian_04929_1_1.log
 Initial command:
 /opt/gaussian/g16_legacy/l1.exe "/scratch-local/jramos/2594880/Gau-15029.inp" -scrdir="/scratch-local/jramos/2594880/"
 Entering Link 1 = /opt/gaussian/g16_legacy/l1.exe PID=     15031.
  
 Copyright (c) 1988,1990,1992,1993,1995,1998,2003,2009,2016,
            Gaussian, Inc.  All Rights Reserved.
  
 This is part of the Gaussian(R) 16 program.  It is based on
 the Gaussian(R) 09 system (copyright 2009, Gaussian, Inc.),
 the Gaussian(R) 03 system (copyright 2003, Gaussian, Inc.),
 the Gaussian(R) 98 system (copyright 1998, Gaussian, Inc.),
 the Gaussian(R) 94 system (copyright 1995, Gaussian, Inc.),
 the Gaussian 92(TM) system (copyright 1992, Gaussian, Inc.),
 the Gaussian 90(TM) system (copyright 1990, Gaussian, Inc.),
 the Gaussian 88(TM) system (copyright 1988, Gaussian, Inc.),
 the Gaussian 86(TM) system (copyright 1986, Carnegie Mellon
 University), and the Gaussian 82(TM) system (copyright 1983,
 Carnegie Mellon University). Gaussian is a federally registered
 trademark of Gaussian, Inc.
  
 This software contains proprietary and confidential information,
 including trade secrets, belonging to Gaussian, Inc.
  
 This software is provided under written license and may be
 used, copied, transmitted, or stored only in accord with that
 written license.
  
 The following legend is applicable only to US Government
 contracts under FAR:
  
                    RESTRICTED RIGHTS LEGEND
  
 Use, reproduction and disclosure by the US Government is
 subject to restrictions as set forth in subparagraphs (a)
 and (c) of the Commercial Computer Software - Restricted
 Rights clause in FAR 52.227-19.
  
 Gaussian, Inc.
 340 Quinnipiac St., Bldg. 40, Wallingford CT 06492
  
  
 ---------------------------------------------------------------
 Warning -- This program may not be used in any manner that
 competes with the business of Gaussian, Inc. or will provide
 assistance to any competitor of Gaussian, Inc.  The licensee
 of this program is prohibited from giving any competitor of
 Gaussian, Inc. access to this program.  By using this program,
 the user acknowledges that Gaussian, Inc. is engaged in the
 business of creating and licensing software in the field of
 computational chemistry and represents and warrants to the
 licensee that it is not a competitor of Gaussian, Inc. and that
 it will not use this program in any manner prohibited above.
 ---------------------------------------------------------------
  

 Cite this work as:
 Gaussian 16, Revision A.03,
 M. J. Frisch, G. W. Trucks, H. B. Schlegel, G. E. Scuseria, 
 M. A. Robb, J. R. Cheeseman, G. Scalmani, V. Barone, 
 G. A. Petersson, H. Nakatsuji, X. Li, M. Caricato, A. V. Marenich, 
 J. Bloino, B. G. Janesko, R. Gomperts, B. Mennucci, H. P. Hratchian, 
 J. V. Ortiz, A. F. Izmaylov, J. L. Sonnenberg, D. Williams-Young, 
 F. Ding, F. Lipparini, F. Egidi, J. Goings, B. Peng, A. Petrone, 
 T. Henderson, D. Ranasinghe, V. G. Zakrzewski, J. Gao, N. Rega, 
 G. Zheng, W. Liang, M. Hada, M. Ehara, K. Toyota, R. Fukuda, 
 J. Hasegawa, M. Ishida, T. Nakajima, Y. Honda, O. Kitao, H. Nakai, 
 T. Vreven, K. Throssell, J. A. Montgomery, Jr., J. E. Peralta, 
 F. Ogliaro, M. J. Bearpark, J. J. Heyd, E. N. Brothers, K. N. Kudin, 
 V. N. Staroverov, T. A. Keith, R. Kobayashi, J. Normand, 
 K. Raghavachari, A. P. Rendell, J. C. Burant, S. S. Iyengar, 
 J. Tomasi, M. Cossi, J. M. Millam, M. Klene, C. Adamo, R. Cammi, 
 J. W. Ochterski, R. L. Martin, K. Morokuma, O. Farkas, 
 J. B. Foresman, and D. J. Fox, Gaussian, Inc., Wallingford CT, 2016.
 
 ******************************************
 Gaussian 16:  EM64L-G16RevA.03 25-Dec-2016
                 6-May-2021 
 ******************************************
 %chk=gaussian_04929_1_1.chk
 %nproc=2
 Will use up to    2 processors via shared memory.
 %mem=4000Mb
 -------------
 #p 6-31g* mp2
 -------------
 1/38=1,172=1/1;
 2/12=2,17=6,18=5,40=1/2;
 3/5=1,6=6,7=1,11=9,25=1,30=1/1,2,3;
 4//1;
 5/5=2,38=5/2;
 8/10=2/1;
 9/16=-3/6;
 6/7=2,8=2,9=2,10=2/1;
 99/5=1,9=1/99;
 Leave Link    1 at Thu May  6 07:11:16 2021, MaxMem=   524288000 cpu:               0.1 elap:               0.1
 (Enter /opt/gaussian/g16_legacy/l101.exe)
 ------------------------------------------------------
 Input file generated by CHIRIPA (05-May-2021 14:51:14)
 ------------------------------------------------------
 Symbolic Z-matrix:
 Charge =  0 Multiplicity = 1
 C                    -0.666    -0.374     0. 
 C                    -1.882     0.553     0. 
 C                    -3.207    -0.21      0. 
 H                    -0.713    -1.03     -0.88 
 H                    -0.713    -1.029     0.881 
 H                    -1.832     1.207    -0.88 
 H                    -1.832     1.207     0.88 
 H                    -3.283    -0.85      0.885 
 H                    -3.283    -0.85     -0.885 
 H                    -4.063     0.472     0. 
 C                     0.666     0.374     0. 
 C                     1.882    -0.553     0. 
 C                     3.207     0.21      0. 
 H                     0.713     1.029    -0.881 
 H                     0.713     1.03      0.88 
 H                     1.832    -1.207    -0.88 
 H                     1.832    -1.207     0.88 
 H                     3.283     0.85      0.885 
 H                     3.283     0.85     -0.885 
 H                     4.063    -0.472     0. 
 C                    -4.77628  -0.40143  -5.48722 
 C                    -6.28017  -0.64437  -5.61857 
 C                    -6.60829  -1.88225  -6.4539 
 H                    -4.3395   -0.29539  -6.48968 
 H                    -4.30729  -1.2857   -5.03388 
 H                    -6.74638   0.24064  -6.07026 
 H                    -6.71345  -0.74966  -4.61568 
 H                    -6.16984  -2.77846  -6.00316 
 H                    -6.20296  -1.78254  -7.46601 
 H                    -7.68872  -2.03711  -6.53487 
 C                    -4.43236   0.83254  -4.65491 
 C                    -2.92846   1.07548  -4.52356 
 C                    -2.60035   2.31337  -3.68822 
 H                    -4.90135   1.71681  -5.10825 
 H                    -4.86914   0.7265   -3.65245 
 H                    -2.49518   1.18077  -5.52645 
 H                    -2.46225   0.19048  -4.07187 
 H                    -3.00568   2.21365  -2.67611 
 H                    -3.0388    3.20958  -4.13897 
 H                    -1.51992   2.46822  -3.60726 
 
 ITRead=  0  0  0  0  0  0  0  0  0  0  0  0  0  0  0  0  0  0  0  0
 ITRead=  0  0  0  0  0  0  0  0  0  0  0  0  0  0  0  0  0  0  0  0
 MicOpt= -1 -1 -1 -1 -1 -1 -1 -1 -1 -1 -1 -1 -1 -1 -1 -1 -1 -1 -1 -1
 MicOpt= -1 -1 -1 -1 -1 -1 -1 -1 -1 -1 -1 -1 -1 -1 -1 -1 -1 -1 -1 -1
 NAtoms=     40 NQM=       40 NQMF=       0 NMMI=      0 NMMIF=      0
                NMic=       0 NMicF=      0.
                    Isotopes and Nuclear Properties:
 (Nuclear quadrupole moments (NQMom) in fm**2, nuclear magnetic moments (NMagM)
  in nuclear magnetons)

  Atom         1           2           3           4           5           6           7           8           9          10
 IAtWgt=          12          12          12           1           1           1           1           1           1           1
 AtmWgt=  12.0000000  12.0000000  12.0000000   1.0078250   1.0078250   1.0078250   1.0078250   1.0078250   1.0078250   1.0078250
 NucSpn=           0           0           0           1           1           1           1           1           1           1
 AtZEff=  -0.0000000  -0.0000000  -0.0000000  -0.0000000  -0.0000000  -0.0000000  -0.0000000  -0.0000000  -0.0000000  -0.0000000
 NQMom=    0.0000000   0.0000000   0.0000000   0.0000000   0.0000000   0.0000000   0.0000000   0.0000000   0.0000000   0.0000000
 NMagM=    0.0000000   0.0000000   0.0000000   2.7928460   2.7928460   2.7928460   2.7928460   2.7928460   2.7928460   2.7928460
 AtZNuc=   6.0000000   6.0000000   6.0000000   1.0000000   1.0000000   1.0000000   1.0000000   1.0000000   1.0000000   1.0000000

  Atom        11          12          13          14          15          16          17          18          19          20
 IAtWgt=          12          12          12           1           1           1           1           1           1           1
 AtmWgt=  12.0000000  12.0000000  12.0000000   1.0078250   1.0078250   1.0078250   1.0078250   1.0078250   1.0078250   1.0078250
 NucSpn=           0           0           0           1           1           1           1           1           1           1
 AtZEff=  -0.0000000  -0.0000000  -0.0000000  -0.0000000  -0.0000000  -0.0000000  -0.0000000  -0.0000000  -0.0000000  -0.0000000
 NQMom=    0.0000000   0.0000000   0.0000000   0.0000000   0.0000000   0.0000000   0.0000000   0.0000000   0.0000000   0.0000000
 NMagM=    0.0000000   0.0000000   0.0000000   2.7928460   2.7928460   2.7928460   2.7928460   2.7928460   2.7928460   2.7928460
 AtZNuc=   6.0000000   6.0000000   6.0000000   1.0000000   1.0000000   1.0000000   1.0000000   1.0000000   1.0000000   1.0000000

  Atom        21          22          23          24          25          26          27          28          29          30
 IAtWgt=          12          12          12           1           1           1           1           1           1           1
 AtmWgt=  12.0000000  12.0000000  12.0000000   1.0078250   1.0078250   1.0078250   1.0078250   1.0078250   1.0078250   1.0078250
 NucSpn=           0           0           0           1           1           1           1           1           1           1
 AtZEff=  -0.0000000  -0.0000000  -0.0000000  -0.0000000  -0.0000000  -0.0000000  -0.0000000  -0.0000000  -0.0000000  -0.0000000
 NQMom=    0.0000000   0.0000000   0.0000000   0.0000000   0.0000000   0.0000000   0.0000000   0.0000000   0.0000000   0.0000000
 NMagM=    0.0000000   0.0000000   0.0000000   2.7928460   2.7928460   2.7928460   2.7928460   2.7928460   2.7928460   2.7928460
 AtZNuc=   6.0000000   6.0000000   6.0000000   1.0000000   1.0000000   1.0000000   1.0000000   1.0000000   1.0000000   1.0000000

  Atom        31          32          33          34          35          36          37          38          39          40
 IAtWgt=          12          12          12           1           1           1           1           1           1           1
 AtmWgt=  12.0000000  12.0000000  12.0000000   1.0078250   1.0078250   1.0078250   1.0078250   1.0078250   1.0078250   1.0078250
 NucSpn=           0           0           0           1           1           1           1           1           1           1
 AtZEff=  -0.0000000  -0.0000000  -0.0000000  -0.0000000  -0.0000000  -0.0000000  -0.0000000  -0.0000000  -0.0000000  -0.0000000
 NQMom=    0.0000000   0.0000000   0.0000000   0.0000000   0.0000000   0.0000000   0.0000000   0.0000000   0.0000000   0.0000000
 NMagM=    0.0000000   0.0000000   0.0000000   2.7928460   2.7928460   2.7928460   2.7928460   2.7928460   2.7928460   2.7928460
 AtZNuc=   6.0000000   6.0000000   6.0000000   1.0000000   1.0000000   1.0000000   1.0000000   1.0000000   1.0000000   1.0000000
 Leave Link  101 at Thu May  6 07:11:16 2021, MaxMem=   524288000 cpu:               0.2 elap:               0.2
 (Enter /opt/gaussian/g16_legacy/l202.exe)
                          Input orientation:                          
 ---------------------------------------------------------------------
 Center     Atomic      Atomic             Coordinates (Angstroms)
 Number     Number       Type             X           Y           Z
 ---------------------------------------------------------------------
      1          6           0       -0.666000   -0.374000    0.000000
      2          6           0       -1.882000    0.553000    0.000000
      3          6           0       -3.207000   -0.210000    0.000000
      4          1           0       -0.713000   -1.030000   -0.880000
      5          1           0       -0.713000   -1.029000    0.881000
      6          1           0       -1.832000    1.207000   -0.880000
      7          1           0       -1.832000    1.207000    0.880000
      8          1           0       -3.283000   -0.850000    0.885000
      9          1           0       -3.283000   -0.850000   -0.885000
     10          1           0       -4.063000    0.472000    0.000000
     11          6           0        0.666000    0.374000    0.000000
     12          6           0        1.882000   -0.553000    0.000000
     13          6           0        3.207000    0.210000    0.000000
     14          1           0        0.713000    1.029000   -0.881000
     15          1           0        0.713000    1.030000    0.880000
     16          1           0        1.832000   -1.207000   -0.880000
     17          1           0        1.832000   -1.207000    0.880000
     18          1           0        3.283000    0.850000    0.885000
     19          1           0        3.283000    0.850000   -0.885000
     20          1           0        4.063000   -0.472000    0.000000
     21          6           0       -4.776275   -0.401432   -5.487223
     22          6           0       -6.280174   -0.644372   -5.618571
     23          6           0       -6.608288   -1.882254   -6.453905
     24          1           0       -4.339499   -0.295385   -6.489683
     25          1           0       -4.307287   -1.285697   -5.033878
     26          1           0       -6.746384    0.240636   -6.070262
     27          1           0       -6.713453   -0.749662   -4.615675
     28          1           0       -6.169837   -2.778464   -6.003161
     29          1           0       -6.202956   -1.782540   -7.466014
     30          1           0       -7.688715   -2.037112   -6.534873
     31          6           0       -4.432362    0.832544   -4.654905
     32          6           0       -2.928462    1.075484   -4.523557
     33          6           0       -2.600349    2.313366   -3.688223
     34          1           0       -4.901349    1.716809   -5.108250
     35          1           0       -4.869138    0.726497   -3.652445
     36          1           0       -2.495184    1.180774   -5.526453
     37          1           0       -2.462252    0.190476   -4.071866
     38          1           0       -3.005681    2.213652   -2.676114
     39          1           0       -3.038799    3.209577   -4.138967
     40          1           0       -1.519922    2.468224   -3.607255
 ---------------------------------------------------------------------
                    Distance matrix (angstroms):
                    1          2          3          4          5
     1  C    0.000000
     2  C    1.529047   0.000000
     3  C    2.546287   1.528985   0.000000
     4  H    1.098610   2.155655   2.768905   0.000000
     5  H    1.098815   2.155330   2.768927   1.761000   0.000000
     6  H    2.152561   1.097550   2.161692   2.501266   3.058264
     7  H    2.152561   1.097550   2.161692   3.058420   2.500372
     8  H    2.803300   2.171275   1.094806   3.122903   2.576229
     9  H    2.803300   2.171275   1.094806   2.576301   3.123411
    10  H    3.500761   2.182504   1.094468   3.775302   3.775137
    11  C    1.527654   2.554280   3.916782   2.155750   2.155507
    12  C    2.554280   3.923128   5.100546   2.781358   2.781504
    13  C    3.916782   5.100546   6.427736   4.204569   4.204484
    14  H    2.155507   2.781504   4.204484   2.504587   3.061615
    15  H    2.155750   2.781358   4.204569   3.061809   2.504587
    16  H    2.776381   4.203070   5.211519   2.551148   3.099973
    17  H    2.776381   4.203070   5.211519   3.099347   2.551217
    18  H    4.228002   5.248682   6.635279   4.755801   4.415730
    19  H    4.228002   5.248682   6.635279   4.416157   4.755777
    20  H    4.730015   6.032715   7.274720   4.888347   4.888413
    21  C    6.856000   6.276734   5.710419   6.175096   7.580126
    22  C    7.947351   7.235052   6.418833   7.320942   8.566551
    23  C    8.901601   8.361887   7.484523   8.157768   9.448984
    24  H    7.457665   6.991069   6.588310   6.720097   8.247221
    25  H    6.279338   5.882410   5.263809   5.498998   6.926079
    26  H    8.613764   7.785107   7.041193   8.059470   9.291595
    27  H    7.616907   6.807666   5.821589   7.073846   8.142291
    28  H    8.491856   8.094575   7.170310   7.686415   8.957085
    29  H    9.401236   8.936821   8.196951   8.607062  10.018986
    30  H    9.735966   9.117630   8.131954   9.036175  10.230937
    31  C    6.108140   5.315132   4.925094   5.617173   6.924250
    32  C    5.261398   4.672327   4.710904   4.755717   6.208572
    33  C    4.956474   4.149446   4.509810   4.756711   5.967520
    34  H    6.957290   6.046911   5.716435   6.554794   7.807231
    35  H    5.676074   4.721594   4.120690   5.295773   6.395887
    36  H    6.025356   5.595693   5.743049   5.445478   7.008191
    37  H    4.486117   4.128948   4.158741   3.838939   5.392391
    38  H    4.396776   3.343951   3.616103   4.359322   5.331439
    39  H    5.966846   5.052389   5.371485   5.831314   6.969573
    40  H    4.671157   4.100180   4.799105   4.508505   5.746837
                    6          7          8          9         10
     6  H    0.000000
     7  H    1.760000   0.000000
     8  H    3.074390   2.517275   0.000000
     9  H    2.517275   3.074390   1.770000   0.000000
    10  H    2.508383   2.508383   1.771810   1.771810   0.000000
    11  C    2.776381   2.776381   4.228002   4.228002   4.730015
    12  C    4.203070   4.203070   5.248682   5.248682   6.032715
    13  C    5.211519   5.211519   6.635279   6.635279   7.274720
    14  H    2.551217   3.099973   4.755777   4.415730   4.888413
    15  H    3.099347   2.551148   4.416157   4.755801   4.888347
    16  H    4.387743   4.727567   5.422721   5.127446   6.192291
    17  H    4.727567   4.387743   5.127446   5.422721   6.192291
    18  H    5.422721   5.127446   6.782504   7.009654   7.408767
    19  H    5.127446   5.422721   7.009654   6.782504   7.408767
    20  H    6.192291   6.192291   7.408767   7.408767   8.180649
    21  C    5.699326   7.197037   6.560207   4.859171   5.601898
    22  C    6.757802   8.089824   7.163921   5.606427   6.142515
    23  C    7.963971   9.281303   8.122968   6.567784   7.326247
    24  H    6.325603   7.928237   7.470591   5.730293   6.540743
    25  H    5.440155   6.878556   6.022633   4.295601   5.337518
    26  H    7.212756   8.566865   7.846030   6.330202   6.640946
    27  H    6.450766   7.606547   6.483479   5.069123   5.460935
    28  H    7.806890   9.059727   7.713596   6.184527   7.144384
    29  H    8.450928   9.884258   8.895797   7.259857   8.087257
    30  H    8.763730   9.990281   8.710573   7.262274   7.883275
    31  C    4.599131   6.126767   5.902757   4.285344   4.683435
    32  C    3.807234   5.515247   5.752015   4.131862   4.702546
    33  C    3.114566   4.762674   5.602434   4.281467   4.374125
    34  H    5.249658   6.748329   6.717634   5.200327   5.324152
    35  H    4.140234   5.477057   5.058615   3.558079   3.748997
    36  H    4.693615   6.440741   6.771368   5.127161   5.788099
    37  H    3.408599   5.094263   5.130959   3.451425   4.384261
    38  H    2.370000   3.877734   4.705784   3.559629   3.363460
    39  H    4.010928   5.536850   6.463748   5.208464   5.066988
    40  H    3.020927   4.671567   5.856570   4.640014   4.844011
                   11         12         13         14         15
    11  C    0.000000
    12  C    1.529047   0.000000
    13  C    2.546287   1.528985   0.000000
    14  H    1.098815   2.155330   2.768927   0.000000
    15  H    1.098610   2.155655   2.768905   1.761000   0.000000
    16  H    2.152561   1.097550   2.161692   2.500372   3.058420
    17  H    2.152561   1.097550   2.161692   3.058264   2.501266
    18  H    2.803300   2.171275   1.094806   3.123411   2.576301
    19  H    2.803300   2.171275   1.094806   2.576229   3.122903
    20  H    3.500761   2.182504   1.094468   3.775137   3.775302
    21  C    7.767192   8.629323   9.706500   7.307227   8.527759
    22  C    8.991927   9.909479  11.059148   8.610995   9.692236
    23  C    9.982927  10.747316  11.931902   9.650592  10.764230
    24  H    8.223082   8.993853   9.965995   7.664142   9.033085
    25  H    7.268295   8.011495   9.167418   6.914297   8.095659
    26  H    9.581717  10.579553  11.658425   9.120985  10.226028
    27  H    8.776298   9.758327  10.983660   8.500802   9.408605
    28  H    9.628325  10.287017  11.527963   9.386520  10.452547
    29  H   10.371817  11.073376  12.176159   9.954778  11.198070
    30  H   10.877467  11.683567  12.902352  10.580933  11.617932
    31  C    6.918938   7.966118   8.967472   6.384019   7.559690
    32  C    5.820207   6.801108   7.671735   5.150789   6.516191
    33  C    5.294636   6.473832   7.193917   4.528618   5.787398
    34  H    7.674160   8.789771   9.701032   7.061419   8.237218
    35  H    6.640961   7.781731   8.878690   6.239606   7.196905
    36  H    6.417605   7.259986   7.999937   5.647629   7.166437
    37  H    5.138067   6.000448   6.980035   4.578971   5.942054
    38  H    4.901749   6.221364   7.055042   4.295861   5.279732
    39  H    6.236752   7.449986   8.070844   5.426349   6.634499
    40  H    4.709174   5.806303   6.360476   3.806543   5.214392
                   16         17         18         19         20
    16  H    0.000000
    17  H    1.760000   0.000000
    18  H    3.074390   2.517275   0.000000
    19  H    2.517275   3.074390   1.770000   0.000000
    20  H    2.508383   2.508383   1.771810   1.771810   0.000000
    21  C    8.095971   9.211936  10.350035   9.364745  10.404200
    22  C    9.411587  10.409387  11.661213  10.774699  11.771971
    23  C   10.137201  11.201812  12.615955  11.675423  12.550621
    24  H    8.389695   9.655603  10.667725   9.530313  10.618341
    25  H    7.412944   8.524728   9.859350   8.909930   9.801211
    26  H   10.130308  11.135101  12.220292  11.306936  12.417677
    27  H    9.337515  10.170367  11.521520  10.789158  11.726615
    28  H    9.630455  10.671307  12.246168  11.345371  12.085887
    29  H   10.405160  11.599470  12.909418  11.841595  12.761220
    30  H   11.104535  12.096009  13.556123  12.674187  13.537243
    31  C    7.592883   8.604484   9.498298   8.587159   9.774515
    32  C    6.414611   7.554479   8.239271   7.202236   8.469818
    33  C    6.318608   7.273744   7.594051   6.679318   8.109345
    34  H    8.471408   9.473425  10.181059   9.250447  10.547258
    35  H    7.505339   8.317855   9.330649   8.609957   9.724188
    36  H    6.783473   8.091269   8.637335   7.418889   8.734021
    37  H    5.530059   6.701829   7.616654   6.602954   7.719966
    38  H    6.191126   6.910135   7.354494   6.679457   8.021257
    39  H    7.338372   8.271691   8.412668   7.491398   9.006698
    40  H    5.672792   6.699113   6.772523   5.753032   7.268165
                   21         22         23         24         25
    21  C    0.000000
    22  C    1.529047   0.000000
    23  C    2.546287   1.528984   0.000000
    24  H    1.098611   2.155655   2.768905   0.000000
    25  H    1.098816   2.155330   2.768928   1.761001   0.000000
    26  H    2.152560   1.097550   2.161692   2.501265   3.058264
    27  H    2.152561   1.097550   2.161692   3.058420   2.500372
    28  H    2.803300   2.171274   1.094807   3.122903   2.576229
    29  H    2.803300   2.171275   1.094807   2.576300   3.123412
    30  H    3.500761   2.182504   1.094468   3.775302   3.775138
    31  C    1.527654   2.554279   3.916782   2.155750   2.155507
    32  C    2.554280   3.923128   5.100547   2.781359   2.781503
    33  C    3.916782   5.100546   6.427737   4.204569   4.204483
    34  H    2.155507   2.781503   4.204484   2.504587   3.061614
    35  H    2.155750   2.781359   4.204569   3.061810   2.504587
    36  H    2.776381   4.203069   5.211519   2.551148   3.099972
    37  H    2.776381   4.203070   5.211519   3.099348   2.551217
    38  H    4.228002   5.248682   6.635279   4.755801   4.415730
    39  H    4.228002   5.248682   6.635279   4.416157   4.755777
    40  H    4.730015   6.032715   7.274719   4.888347   4.888413
                   26         27         28         29         30
    26  H    0.000000
    27  H    1.759999   0.000000
    28  H    3.074390   2.517275   0.000000
    29  H    2.517276   3.074390   1.770000   0.000000
    30  H    2.508383   2.508383   1.771810   1.771810   0.000000
    31  C    2.776380   2.776381   4.228001   4.228002   4.730015
    32  C    4.203070   4.203070   5.248681   5.248682   6.032715
    33  C    5.211519   5.211519   6.635278   6.635279   7.274719
    34  H    2.551217   3.099973   4.755776   4.415730   4.888413
    35  H    3.099347   2.551148   4.416156   4.755801   4.888347
    36  H    4.387743   4.727567   5.422720   5.127446   6.192291
    37  H    4.727567   4.387744   5.127445   5.422721   6.192291
    38  H    5.422720   5.127446   6.782503   7.009655   7.408767
    39  H    5.127446   5.422721   7.009654   6.782504   7.408767
    40  H    6.192290   6.192291   7.408766   7.408767   8.180648
                   31         32         33         34         35
    31  C    0.000000
    32  C    1.529048   0.000000
    33  C    2.546287   1.528984   0.000000
    34  H    1.098815   2.155330   2.768927   0.000000
    35  H    1.098611   2.155656   2.768905   1.761001   0.000000
    36  H    2.152561   1.097550   2.161692   2.500371   3.058420
    37  H    2.152561   1.097550   2.161693   3.058264   2.501266
    38  H    2.803300   2.171275   1.094807   3.123411   2.576300
    39  H    2.803301   2.171275   1.094807   2.576229   3.122904
    40  H    3.500761   2.182503   1.094468   3.775137   3.775302
                   36         37         38         39         40
    36  H    0.000000
    37  H    1.759999   0.000000
    38  H    3.074390   2.517276   0.000000
    39  H    2.517276   3.074391   1.770001   0.000000
    40  H    2.508383   2.508383   1.771810   1.771810   0.000000
 Stoichiometry    C12H28
 Framework group  C1[X(C12H28)]
 Deg. of freedom   114
 Full point group                 C1      NOp   1
 Largest Abelian subgroup         C1      NOp   1
 Largest concise Abelian subgroup C1      NOp   1
                         Standard orientation:                         
 ---------------------------------------------------------------------
 Center     Atomic      Atomic             Coordinates (Angstroms)
 Number     Number       Type             X           Y           Z
 ---------------------------------------------------------------------
      1          6           0       -2.850944    1.083040   -0.192855
      2          6           0       -1.981015    1.342699    1.037505
      3          6           0       -0.923739    2.420738    0.797104
      4          1           0       -2.207812    0.787024   -1.032915
      5          1           0       -3.342187    2.019851   -0.490279
      6          1           0       -1.492642    0.405371    1.333349
      7          1           0       -2.626311    1.637946    1.874785
      8          1           0       -1.396373    3.369730    0.523916
      9          1           0       -0.256262    2.130152   -0.020597
     10          1           0       -0.313171    2.590323    1.689465
     11          6           0       -3.912632    0.007839    0.031846
     12          6           0       -4.782561   -0.251820   -1.198514
     13          6           0       -5.839837   -1.329859   -0.958113
     14          1           0       -3.421389   -0.928971    0.329270
     15          1           0       -4.555764    0.303855    0.871906
     16          1           0       -4.137265   -0.547066   -2.035794
     17          1           0       -5.270934    0.685508   -1.494358
     18          1           0       -6.507314   -1.039273   -0.140412
     19          1           0       -5.367203   -2.278851   -0.684925
     20          1           0       -6.450405   -1.499444   -1.850474
     21          6           0        3.819010   -0.464710   -0.540584
     22          6           0        5.065210    0.387492   -0.298258
     23          6           0        5.929792    0.539816   -1.550093
     24          1           0        4.125175   -1.456894   -0.899443
     25          1           0        3.223972   -0.011162   -1.345333
     26          1           0        5.657019   -0.066774    0.506739
     27          1           0        4.756052    1.377699    0.060249
     28          1           0        5.360448    1.013859   -2.356153
     29          1           0        6.266536   -0.438822   -1.907126
     30          1           0        6.815242    1.152611   -1.354338
     31          6           0        2.944566   -0.626169    0.701593
     32          6           0        1.698365   -1.478371    0.459267
     33          6           0        0.833784   -1.630695    1.711102
     34          1           0        3.539603   -1.079718    1.506342
     35          1           0        2.638402    0.366015    1.060452
     36          1           0        2.007525   -2.468578    0.100760
     37          1           0        1.106557   -1.024106   -0.345731
     38          1           0        0.497040   -0.652057    2.068135
     39          1           0        1.403127   -2.104739    2.517163
     40          1           0       -0.051666   -2.243490    1.515347
 ---------------------------------------------------------------------
 Rotational constants (GHZ):           1.1424067           0.1874328           0.1815951
 Leave Link  202 at Thu May  6 07:11:17 2021, MaxMem=   524288000 cpu:               0.1 elap:               0.1
 (Enter /opt/gaussian/g16_legacy/l301.exe)
 Standard basis: 6-31G(d) (6D, 7F)
 Ernie: Thresh=  0.10000D-02 Tol=  0.10000D-05 Strict=F.
 There are   236 symmetry adapted cartesian basis functions of A   symmetry.
 There are   236 symmetry adapted basis functions of A   symmetry.
   236 basis functions,   448 primitive gaussians,   236 cartesian basis functions
    50 alpha electrons       50 beta electrons
       nuclear repulsion energy       684.0955224707 Hartrees.
 IExCor=    0 DFT=F Ex=HF Corr=None ExCW=0 ScaHFX=  1.000000
 ScaDFX=  1.000000  1.000000  1.000000  1.000000 ScalE2=  1.000000  1.000000
 IRadAn=      5 IRanWt=     -1 IRanGd=            0 ICorTp=0 IEmpDi=  4
 NAtoms=   40 NActive=   40 NUniq=   40 SFac= 1.00D+00 NAtFMM=   60 NAOKFM=F Big=F
 Integral buffers will be    131072 words long.
 Raffenetti 1 integral format.
 Two-electron integral symmetry is turned on.
 Leave Link  301 at Thu May  6 07:11:17 2021, MaxMem=   524288000 cpu:               0.1 elap:               0.1
 (Enter /opt/gaussian/g16_legacy/l302.exe)
 NPDir=0 NMtPBC=     1 NCelOv=     1 NCel=       1 NClECP=     1 NCelD=      1
         NCelK=      1 NCelE2=     1 NClLst=     1 CellRange=     0.0.
 One-electron integrals computed using PRISM.
 One-electron integral symmetry used in STVInt
 NBasis=   236 RedAO= T EigKep=  3.21D-03  NBF=   236
 NBsUse=   236 1.00D-06 EigRej= -1.00D+00 NBFU=   236
 Leave Link  302 at Thu May  6 07:11:17 2021, MaxMem=   524288000 cpu:               0.4 elap:               0.4
 (Enter /opt/gaussian/g16_legacy/l303.exe)
 DipDrv:  MaxL=1.
 Leave Link  303 at Thu May  6 07:11:18 2021, MaxMem=   524288000 cpu:               0.1 elap:               0.3
 (Enter /opt/gaussian/g16_legacy/l401.exe)
 ExpMin= 1.61D-01 ExpMax= 3.05D+03 ExpMxC= 4.57D+02 IAcc=3 IRadAn=         5 AccDes= 0.00D+00
 Harris functional with IExCor=  205 and IRadAn=       5 diagonalized for initial guess.
 HarFok:  IExCor=  205 AccDes= 0.00D+00 IRadAn=         5 IDoV= 1 UseB2=F ITyADJ=14
 ICtDFT=  3500011 ScaDFX=  1.000000  1.000000  1.000000  1.000000
 FoFCou: FMM=F IPFlag=           0 FMFlag=      100000 FMFlg1=           0
         NFxFlg=           0 DoJE=T BraDBF=F KetDBF=T FulRan=T
         wScrn=  0.000000 ICntrl=       500 IOpCl=  0 I1Cent=   200000004 NGrid=           0
         NMat0=    1 NMatS0=      1 NMatT0=    0 NMatD0=    1 NMtDS0=    0 NMtDT0=    0
 Petite list used in FoFCou.
 Harris En= -472.099308488148    
 JPrj=0 DoOrth=F DoCkMO=F.
 Leave Link  401 at Thu May  6 07:11:22 2021, MaxMem=   524288000 cpu:               9.0 elap:               4.7
 (Enter /opt/gaussian/g16_legacy/l502.exe)
 Keep R1 ints in memory in canonical form, NReq=397720540.
 FoFCou: FMM=F IPFlag=           0 FMFlag=           0 FMFlg1=           0
         NFxFlg=           0 DoJE=F BraDBF=F KetDBF=F FulRan=T
         wScrn=  0.000000 ICntrl=       600 IOpCl=  0 I1Cent=           0 NGrid=           0
         NMat0=    1 NMatS0=  27966 NMatT0=    0 NMatD0=    1 NMtDS0=    0 NMtDT0=    0
 Symmetry not used in FoFCou.
 Two-electron integral symmetry not used.
 Closed shell SCF:
 Using DIIS extrapolation, IDIIS=  1040.
 NGot=   524288000 LenX=   133109463 LenY=   133053326
 Requested convergence on RMS density matrix=1.00D-08 within 128 cycles.
 Requested convergence on MAX density matrix=1.00D-06.
 Requested convergence on             energy=1.00D-06.
 No special actions if energy rises.

 Cycle   1  Pass 1  IDiag  1:
 E= -469.870588578698    
 DIIS: error= 6.09D-02 at cycle   1 NSaved=   1.
 NSaved= 1 IEnMin= 1 EnMin= -469.870588578698     IErMin= 1 ErrMin= 6.09D-02
 ErrMax= 6.09D-02  0.00D+00 EMaxC= 1.00D-01 BMatC= 1.07D+00 BMatP= 1.07D+00
 IDIUse=3 WtCom= 3.91D-01 WtEn= 6.09D-01
 Coeff-Com:  0.100D+01
 Coeff-En:   0.100D+01
 Coeff:      0.100D+01
 Gap=     0.607 Goal=   None    Shift=    0.000
 GapD=    0.607 DampG=2.000 DampE=0.500 DampFc=1.0000 IDamp=-1.
 RMSDP=4.73D-03 MaxDP=1.19D-01              OVMax= 1.34D-01

 Cycle   2  Pass 1  IDiag  1:
 E= -470.595801325110     Delta-E=       -0.725212746412 Rises=F Damp=F
 DIIS: error= 2.24D-02 at cycle   2 NSaved=   2.
 NSaved= 2 IEnMin= 2 EnMin= -470.595801325110     IErMin= 2 ErrMin= 2.24D-02
 ErrMax= 2.24D-02  0.00D+00 EMaxC= 1.00D-01 BMatC= 1.47D-01 BMatP= 1.07D+00
 IDIUse=3 WtCom= 7.76D-01 WtEn= 2.24D-01
 Coeff-Com:  0.219D+00 0.781D+00
 Coeff-En:   0.000D+00 0.100D+01
 Coeff:      0.170D+00 0.830D+00
 Gap=     0.667 Goal=   None    Shift=    0.000
 RMSDP=1.73D-03 MaxDP=3.37D-02 DE=-7.25D-01 OVMax= 4.76D-02

 Cycle   3  Pass 1  IDiag  1:
 E= -470.727223704772     Delta-E=       -0.131422379662 Rises=F Damp=F
 DIIS: error= 5.00D-03 at cycle   3 NSaved=   3.
 NSaved= 3 IEnMin= 3 EnMin= -470.727223704772     IErMin= 3 ErrMin= 5.00D-03
 ErrMax= 5.00D-03  0.00D+00 EMaxC= 1.00D-01 BMatC= 5.19D-03 BMatP= 1.47D-01
 IDIUse=3 WtCom= 9.50D-01 WtEn= 5.00D-02
 Coeff-Com: -0.263D-01 0.111D+00 0.915D+00
 Coeff-En:   0.000D+00 0.000D+00 0.100D+01
 Coeff:     -0.250D-01 0.105D+00 0.920D+00
 Gap=     0.637 Goal=   None    Shift=    0.000
 RMSDP=2.88D-04 MaxDP=6.52D-03 DE=-1.31D-01 OVMax= 9.79D-03

 Cycle   4  Pass 1  IDiag  1:
 E= -470.733084782000     Delta-E=       -0.005861077228 Rises=F Damp=F
 DIIS: error= 5.05D-04 at cycle   4 NSaved=   4.
 NSaved= 4 IEnMin= 4 EnMin= -470.733084782000     IErMin= 4 ErrMin= 5.05D-04
 ErrMax= 5.05D-04  0.00D+00 EMaxC= 1.00D-01 BMatC= 6.45D-05 BMatP= 5.19D-03
 IDIUse=3 WtCom= 9.95D-01 WtEn= 5.05D-03
 Coeff-Com:  0.148D-02-0.241D-01-0.946D-01 0.112D+01
 Coeff-En:   0.000D+00 0.000D+00 0.000D+00 0.100D+01
 Coeff:      0.148D-02-0.240D-01-0.941D-01 0.112D+01
 Gap=     0.638 Goal=   None    Shift=    0.000
 RMSDP=6.11D-05 MaxDP=1.02D-03 DE=-5.86D-03 OVMax= 1.82D-03

 Cycle   5  Pass 1  IDiag  1:
 E= -470.733192208211     Delta-E=       -0.000107426212 Rises=F Damp=F
 DIIS: error= 1.43D-04 at cycle   5 NSaved=   5.
 NSaved= 5 IEnMin= 5 EnMin= -470.733192208211     IErMin= 5 ErrMin= 1.43D-04
 ErrMax= 1.43D-04  0.00D+00 EMaxC= 1.00D-01 BMatC= 6.32D-06 BMatP= 6.45D-05
 IDIUse=3 WtCom= 9.99D-01 WtEn= 1.43D-03
 Coeff-Com:  0.218D-02-0.128D-01-0.820D-01 0.189D+00 0.904D+00
 Coeff-En:   0.000D+00 0.000D+00 0.000D+00 0.000D+00 0.100D+01
 Coeff:      0.217D-02-0.128D-01-0.819D-01 0.188D+00 0.904D+00
 Gap=     0.638 Goal=   None    Shift=    0.000
 RMSDP=1.57D-05 MaxDP=3.04D-04 DE=-1.07D-04 OVMax= 4.80D-04

 Cycle   6  Pass 1  IDiag  1:
 E= -470.733201072340     Delta-E=       -0.000008864128 Rises=F Damp=F
 DIIS: error= 2.26D-05 at cycle   6 NSaved=   6.
 NSaved= 6 IEnMin= 6 EnMin= -470.733201072340     IErMin= 6 ErrMin= 2.26D-05
 ErrMax= 2.26D-05  0.00D+00 EMaxC= 1.00D-01 BMatC= 1.44D-07 BMatP= 6.32D-06
 IDIUse=1 WtCom= 1.00D+00 WtEn= 0.00D+00
 Coeff-Com:  0.131D-03-0.244D-03-0.299D-02-0.329D-01 0.644D-01 0.972D+00
 Coeff:      0.131D-03-0.244D-03-0.299D-02-0.329D-01 0.644D-01 0.972D+00
 Gap=     0.638 Goal=   None    Shift=    0.000
 RMSDP=3.38D-06 MaxDP=5.59D-05 DE=-8.86D-06 OVMax= 1.00D-04

 Cycle   7  Pass 1  IDiag  1:
 E= -470.733201316102     Delta-E=       -0.000000243763 Rises=F Damp=F
 DIIS: error= 3.76D-06 at cycle   7 NSaved=   7.
 NSaved= 7 IEnMin= 7 EnMin= -470.733201316102     IErMin= 7 ErrMin= 3.76D-06
 ErrMax= 3.76D-06  0.00D+00 EMaxC= 1.00D-01 BMatC= 5.35D-09 BMatP= 1.44D-07
 IDIUse=1 WtCom= 1.00D+00 WtEn= 0.00D+00
 Coeff-Com: -0.569D-04 0.365D-03 0.243D-02-0.669D-02-0.256D-01 0.664D-02
 Coeff-Com:  0.102D+01
 Coeff:     -0.569D-04 0.365D-03 0.243D-02-0.669D-02-0.256D-01 0.664D-02
 Coeff:      0.102D+01
 Gap=     0.638 Goal=   None    Shift=    0.000
 RMSDP=7.47D-07 MaxDP=1.36D-05 DE=-2.44D-07 OVMax= 2.46D-05

 Cycle   8  Pass 1  IDiag  1:
 E= -470.733201325893     Delta-E=       -0.000000009791 Rises=F Damp=F
 DIIS: error= 1.83D-06 at cycle   8 NSaved=   8.
 NSaved= 8 IEnMin= 8 EnMin= -470.733201325893     IErMin= 8 ErrMin= 1.83D-06
 ErrMax= 1.83D-06  0.00D+00 EMaxC= 1.00D-01 BMatC= 6.10D-10 BMatP= 5.35D-09
 IDIUse=1 WtCom= 1.00D+00 WtEn= 0.00D+00
 Coeff-Com: -0.157D-04 0.631D-04 0.525D-03 0.139D-02-0.737D-02-0.676D-01
 Coeff-Com:  0.144D+00 0.929D+00
 Coeff:     -0.157D-04 0.631D-04 0.525D-03 0.139D-02-0.737D-02-0.676D-01
 Coeff:      0.144D+00 0.929D+00
 Gap=     0.638 Goal=   None    Shift=    0.000
 RMSDP=2.03D-07 MaxDP=3.61D-06 DE=-9.79D-09 OVMax= 7.40D-06

 Cycle   9  Pass 1  IDiag  1:
 E= -470.733201326929     Delta-E=       -0.000000001035 Rises=F Damp=F
 DIIS: error= 3.83D-07 at cycle   9 NSaved=   9.
 NSaved= 9 IEnMin= 9 EnMin= -470.733201326929     IErMin= 9 ErrMin= 3.83D-07
 ErrMax= 3.83D-07  0.00D+00 EMaxC= 1.00D-01 BMatC= 4.08D-11 BMatP= 6.10D-10
 IDIUse=1 WtCom= 1.00D+00 WtEn= 0.00D+00
 Coeff-Com:  0.554D-05-0.345D-04-0.236D-03 0.467D-03 0.280D-02 0.385D-02
 Coeff-Com: -0.958D-01-0.617D-01 0.115D+01
 Coeff:      0.554D-05-0.345D-04-0.236D-03 0.467D-03 0.280D-02 0.385D-02
 Coeff:     -0.958D-01-0.617D-01 0.115D+01
 Gap=     0.638 Goal=   None    Shift=    0.000
 RMSDP=7.49D-08 MaxDP=1.31D-06 DE=-1.04D-09 OVMax= 2.32D-06

 Cycle  10  Pass 1  IDiag  1:
 E= -470.733201327021     Delta-E=       -0.000000000092 Rises=F Damp=F
 DIIS: error= 7.65D-08 at cycle  10 NSaved=  10.
 NSaved=10 IEnMin=10 EnMin= -470.733201327021     IErMin=10 ErrMin= 7.65D-08
 ErrMax= 7.65D-08  0.00D+00 EMaxC= 1.00D-01 BMatC= 1.53D-12 BMatP= 4.08D-11
 IDIUse=1 WtCom= 1.00D+00 WtEn= 0.00D+00
 Coeff-Com:  0.251D-06 0.506D-07-0.591D-05-0.137D-03 0.151D-03 0.370D-02
 Coeff-Com:  0.140D-02-0.509D-01-0.109D+00 0.115D+01
 Coeff:      0.251D-06 0.506D-07-0.591D-05-0.137D-03 0.151D-03 0.370D-02
 Coeff:      0.140D-02-0.509D-01-0.109D+00 0.115D+01
 Gap=     0.638 Goal=   None    Shift=    0.000
 RMSDP=1.43D-08 MaxDP=2.73D-07 DE=-9.21D-11 OVMax= 5.03D-07

 Cycle  11  Pass 1  IDiag  1:
 E= -470.733201327037     Delta-E=       -0.000000000016 Rises=F Damp=F
 DIIS: error= 7.06D-09 at cycle  11 NSaved=  11.
 NSaved=11 IEnMin=11 EnMin= -470.733201327037     IErMin=11 ErrMin= 7.06D-09
 ErrMax= 7.06D-09  0.00D+00 EMaxC= 1.00D-01 BMatC= 3.77D-14 BMatP= 1.53D-12
 IDIUse=1 WtCom= 1.00D+00 WtEn= 0.00D+00
 Coeff-Com: -0.176D-06 0.899D-06 0.676D-05 0.170D-04-0.103D-03-0.839D-03
 Coeff-Com:  0.205D-02 0.117D-01-0.266D-02-0.253D+00 0.124D+01
 Coeff:     -0.176D-06 0.899D-06 0.676D-05 0.170D-04-0.103D-03-0.839D-03
 Coeff:      0.205D-02 0.117D-01-0.266D-02-0.253D+00 0.124D+01
 Gap=     0.638 Goal=   None    Shift=    0.000
 RMSDP=1.95D-09 MaxDP=3.62D-08 DE=-1.64D-11 OVMax= 5.92D-08

 SCF Done:  E(RHF) =  -470.733201327     A.U. after   11 cycles
            NFock= 11  Conv=0.20D-08     -V/T= 2.0011
 KE= 4.702254789040D+02 PE=-2.461313523247D+03 EE= 8.362593205452D+02
 Leave Link  502 at Thu May  6 07:11:36 2021, MaxMem=   524288000 cpu:              19.6 elap:              13.1
 (Enter /opt/gaussian/g16_legacy/l801.exe)
 ExpMin= 1.61D-01 ExpMax= 3.05D+03 ExpMxC= 4.57D+02 IAcc=3 IRadAn=         5 AccDes= 0.00D+00
 HarFok:  IExCor=  205 AccDes= 0.00D+00 IRadAn=         5 IDoV=-2 UseB2=F ITyADJ=14
 ICtDFT= 12500011 ScaDFX=  1.000000  1.000000  1.000000  1.000000
 Largest valence mixing into a core orbital is  1.98D-04
 Largest core mixing into a valence orbital is  3.29D-05
 Range of M.O.s used for correlation:    13   236
 NBasis=   236 NAE=    50 NBE=    50 NFC=    12 NFV=     0
 NROrb=    224 NOA=    38 NOB=    38 NVA=   186 NVB=   186
 Leave Link  801 at Thu May  6 07:11:37 2021, MaxMem=   524288000 cpu:               1.3 elap:               0.8
 (Enter /opt/gaussian/g16_legacy/l906.exe)
 FulOut=F Deriv=F AODrv=F NAtomX=    40
   MMem=         154  MDisk=          38 MDiskD=          38
  W3Min=     1668048 MinDsk=     1838182 NBas6D=         236
 NBas2D=       28290    NTT=       27966    LW2=     2000000
    MDV=   523948123 MDiskM=       30717 NBas2p=       19463
 Fully direct method using O(OVN) memory.
 IMap=   1   2   3   4   5   6   7   8   9  10  11  12  13  14  15  16  17  18  19  20
 IMap=  21  22  23  24  25  26  27  28  29  30  31  32  33  34  35  36  37  38
 JobTyp=1 Pass  1:  I=   1 to  38 NPSUse=  2 ParTrn=T ParDer=T DoDerP=F.
 Spin components of T(2) and E(2):
     alpha-alpha T2 =       0.6281613024D-01 E2=     -0.1842910231D+00
     alpha-beta  T2 =       0.4043046251D+00 E2=     -0.1214518507D+01
     beta-beta   T2 =       0.6281613024D-01 E2=     -0.1842910231D+00
 The integrals were generated   1 times.
 ANorm=    0.1236906175D+01
 E2 =    -0.1583100553D+01 EUMP2 =    -0.47231630188003D+03
 Leave Link  906 at Thu May  6 07:12:20 2021, MaxMem=   524288000 cpu:              85.6 elap:              43.0
 (Enter /opt/gaussian/g16_legacy/l601.exe)
 Copying SCF densities to generalized density rwf, IOpCl= 0 IROHF=0.

 **********************************************************************

            Population analysis using the SCF density.

 **********************************************************************

 Orbital symmetries:
       Occupied  (A) (A) (A) (A) (A) (A) (A) (A) (A) (A) (A) (A)
                 (A) (A) (A) (A) (A) (A) (A) (A) (A) (A) (A) (A)
                 (A) (A) (A) (A) (A) (A) (A) (A) (A) (A) (A) (A)
                 (A) (A) (A) (A) (A) (A) (A) (A) (A) (A) (A) (A)
                 (A) (A)
       Virtual   (A) (A) (A) (A) (A) (A) (A) (A) (A) (A) (A) (A)
                 (A) (A) (A) (A) (A) (A) (A) (A) (A) (A) (A) (A)
                 (A) (A) (A) (A) (A) (A) (A) (A) (A) (A) (A) (A)
                 (A) (A) (A) (A) (A) (A) (A) (A) (A) (A) (A) (A)
                 (A) (A) (A) (A) (A) (A) (A) (A) (A) (A) (A) (A)
                 (A) (A) (A) (A) (A) (A) (A) (A) (A) (A) (A) (A)
                 (A) (A) (A) (A) (A) (A) (A) (A) (A) (A) (A) (A)
                 (A) (A) (A) (A) (A) (A) (A) (A) (A) (A) (A) (A)
                 (A) (A) (A) (A) (A) (A) (A) (A) (A) (A) (A) (A)
                 (A) (A) (A) (A) (A) (A) (A) (A) (A) (A) (A) (A)
                 (A) (A) (A) (A) (A) (A) (A) (A) (A) (A) (A) (A)
                 (A) (A) (A) (A) (A) (A) (A) (A) (A) (A) (A) (A)
                 (A) (A) (A) (A) (A) (A) (A) (A) (A) (A) (A) (A)
                 (A) (A) (A) (A) (A) (A) (A) (A) (A) (A) (A) (A)
                 (A) (A) (A) (A) (A) (A) (A) (A) (A) (A) (A) (A)
                 (A) (A) (A) (A) (A) (A)
 The electronic state is 1-A.
 Alpha  occ. eigenvalues --  -11.21654 -11.21608 -11.21599 -11.21552 -11.21424
 Alpha  occ. eigenvalues --  -11.21401 -11.21364 -11.21342 -11.21123 -11.21110
 Alpha  occ. eigenvalues --  -11.21076 -11.21069  -1.08462  -1.08419  -1.03587
 Alpha  occ. eigenvalues --   -1.03507  -0.96025  -0.95975  -0.87043  -0.86990
 Alpha  occ. eigenvalues --   -0.79669  -0.79552  -0.78276  -0.78227  -0.65208
 Alpha  occ. eigenvalues --   -0.64958  -0.61202  -0.60705  -0.59376  -0.59358
 Alpha  occ. eigenvalues --   -0.57654  -0.57569  -0.55391  -0.55181  -0.52717
 Alpha  occ. eigenvalues --   -0.52677  -0.52432  -0.52412  -0.50095  -0.49823
 Alpha  occ. eigenvalues --   -0.47986  -0.47860  -0.46811  -0.46459  -0.45846
 Alpha  occ. eigenvalues --   -0.45762  -0.45746  -0.45587  -0.43811  -0.43785
 Alpha virt. eigenvalues --    0.20009   0.23151   0.23697   0.25205   0.26230
 Alpha virt. eigenvalues --    0.26384   0.26467   0.27800   0.28352   0.29202
 Alpha virt. eigenvalues --    0.30860   0.31064   0.31603   0.31865   0.32278
 Alpha virt. eigenvalues --    0.32805   0.33290   0.34034   0.34129   0.34366
 Alpha virt. eigenvalues --    0.34496   0.34948   0.35757   0.36203   0.36359
 Alpha virt. eigenvalues --    0.36477   0.36764   0.39077   0.39566   0.39888
 Alpha virt. eigenvalues --    0.40839   0.41748   0.45292   0.45445   0.45760
 Alpha virt. eigenvalues --    0.46098   0.47762   0.48569   0.69155   0.69383
 Alpha virt. eigenvalues --    0.69536   0.69568   0.71512   0.71801   0.73592
 Alpha virt. eigenvalues --    0.75712   0.76026   0.77748   0.78409   0.80230
 Alpha virt. eigenvalues --    0.80725   0.81710   0.83928   0.84107   0.86220
 Alpha virt. eigenvalues --    0.87666   0.87979   0.88866   0.95787   0.96090
 Alpha virt. eigenvalues --    0.96229   0.96426   0.98500   0.98621   1.01173
 Alpha virt. eigenvalues --    1.02040   1.05494   1.05725   1.07457   1.07717
 Alpha virt. eigenvalues --    1.10517   1.10835   1.11678   1.12116   1.15562
 Alpha virt. eigenvalues --    1.15900   1.16798   1.16888   1.17349   1.17669
 Alpha virt. eigenvalues --    1.18475   1.18858   1.19260   1.19928   1.20171
 Alpha virt. eigenvalues --    1.20925   1.21086   1.21169   1.21505   1.21622
 Alpha virt. eigenvalues --    1.21699   1.22507   1.23034   1.23523   1.24365
 Alpha virt. eigenvalues --    1.25111   1.25203   1.26456   1.27211   1.27673
 Alpha virt. eigenvalues --    1.28953   1.34848   1.40409   1.43055   1.55632
 Alpha virt. eigenvalues --    1.56045   1.65876   1.65977   1.67320   1.67518
 Alpha virt. eigenvalues --    1.70764   1.71556   1.72733   1.72878   1.79632
 Alpha virt. eigenvalues --    1.80443   1.81144   1.81208   1.92641   1.92988
 Alpha virt. eigenvalues --    2.05003   2.05370   2.13086   2.13362   2.14762
 Alpha virt. eigenvalues --    2.15073   2.17866   2.17945   2.22402   2.22523
 Alpha virt. eigenvalues --    2.25531   2.25598   2.25787   2.26196   2.27571
 Alpha virt. eigenvalues --    2.27746   2.32765   2.32783   2.34069   2.34377
 Alpha virt. eigenvalues --    2.35870   2.35981   2.39456   2.39854   2.43007
 Alpha virt. eigenvalues --    2.43699   2.56699   2.56778   2.56823   2.57082
 Alpha virt. eigenvalues --    2.59454   2.60479   2.66740   2.66922   2.67404
 Alpha virt. eigenvalues --    2.67760   2.67960   2.68883   2.76890   2.77196
 Alpha virt. eigenvalues --    2.77530   2.78073   2.79891   2.80058   2.91295
 Alpha virt. eigenvalues --    2.91497   2.94865   2.95040   2.98531   2.98573
 Alpha virt. eigenvalues --    3.13727   3.13837   3.18567   3.18695   4.55243
 Alpha virt. eigenvalues --    4.55989   4.62400   4.62980   4.71501   4.72463
 Alpha virt. eigenvalues --    4.79675   4.80279   4.87797   4.88718   4.99651
 Alpha virt. eigenvalues --    5.00100
          Condensed to atoms (all electrons):
               1          2          3          4          5          6
     1  C    5.083388   0.351295  -0.057268   0.395989   0.396182  -0.043143
     2  C    0.351295   5.071312   0.340303  -0.041854  -0.041915   0.399286
     3  C   -0.057268   0.340303   5.099157  -0.002870  -0.002873  -0.040307
     4  H    0.395989  -0.041854  -0.002870   0.567503  -0.031550  -0.002988
     5  H    0.396182  -0.041915  -0.002873  -0.031550   0.567316   0.004499
     6  H   -0.043143   0.399286  -0.040307  -0.002988   0.004499   0.554303
     7  H   -0.043595   0.398881  -0.039914   0.004570  -0.002995  -0.031432
     8  H   -0.003756  -0.038688   0.391129   0.000158   0.002613   0.004236
     9  H   -0.003825  -0.038910   0.390986   0.002616   0.000160  -0.002947
    10  H    0.004408  -0.035878   0.393990  -0.000058  -0.000060  -0.002676
    11  C    0.355726  -0.051915   0.004072  -0.041667  -0.041718  -0.003089
    12  C   -0.051917   0.003980  -0.000085  -0.003256  -0.003264  -0.000062
    13  C    0.004074  -0.000085   0.000001  -0.000052  -0.000052  -0.000001
    14  H   -0.041662  -0.003270  -0.000052  -0.002797   0.004468   0.002386
    15  H   -0.041642  -0.003251  -0.000052   0.004465  -0.002800   0.000239
    16  H   -0.003196  -0.000064  -0.000000   0.002404   0.000238   0.000017
    17  H   -0.003201  -0.000065  -0.000000   0.000237   0.002407  -0.000003
    18  H   -0.000070  -0.000001  -0.000000  -0.000001   0.000013   0.000000
    19  H   -0.000070  -0.000000  -0.000000   0.000013  -0.000001  -0.000002
    20  H   -0.000087   0.000001  -0.000000   0.000001   0.000001   0.000000
    21  C   -0.000000   0.000000  -0.000001  -0.000000   0.000000  -0.000000
    22  C    0.000000  -0.000000   0.000000   0.000000  -0.000000   0.000000
    23  C   -0.000000   0.000000   0.000000   0.000000   0.000000  -0.000000
    24  H   -0.000000  -0.000000   0.000000  -0.000000   0.000000  -0.000000
    25  H   -0.000000  -0.000000  -0.000000   0.000000  -0.000000  -0.000000
    26  H    0.000000   0.000000  -0.000000   0.000000  -0.000000  -0.000000
    27  H   -0.000000   0.000000  -0.000000   0.000000   0.000000   0.000000
    28  H    0.000000   0.000000  -0.000000  -0.000000  -0.000000   0.000000
    29  H   -0.000000   0.000000  -0.000000   0.000000   0.000000   0.000000
    30  H    0.000000  -0.000000   0.000000  -0.000000  -0.000000   0.000000
    31  C    0.000000  -0.000002  -0.000026  -0.000000  -0.000000  -0.000002
    32  C   -0.000014   0.000046  -0.000020  -0.000000   0.000000   0.000026
    33  C    0.000037  -0.000714   0.000017   0.000002  -0.000000  -0.000371
    34  H   -0.000000  -0.000000   0.000000   0.000000   0.000000   0.000000
    35  H    0.000000  -0.000011   0.000099  -0.000000   0.000000  -0.000015
    36  H    0.000000  -0.000001   0.000001  -0.000000  -0.000000  -0.000003
    37  H   -0.000002   0.000045  -0.000007   0.000088   0.000000   0.000141
    38  H    0.000018  -0.000616   0.000251   0.000002  -0.000000   0.000300
    39  H   -0.000000   0.000015  -0.000001   0.000000   0.000000   0.000034
    40  H   -0.000002  -0.000035  -0.000003  -0.000001   0.000000   0.000330
               7          8          9         10         11         12
     1  C   -0.043595  -0.003756  -0.003825   0.004408   0.355726  -0.051917
     2  C    0.398881  -0.038688  -0.038910  -0.035878  -0.051915   0.003980
     3  C   -0.039914   0.391129   0.390986   0.393990   0.004072  -0.000085
     4  H    0.004570   0.000158   0.002616  -0.000058  -0.041667  -0.003256
     5  H   -0.002995   0.002613   0.000160  -0.000060  -0.041718  -0.003264
     6  H   -0.031432   0.004236  -0.002947  -0.002676  -0.003089  -0.000062
     7  H    0.564404  -0.002888   0.004231  -0.002506  -0.003198  -0.000064
     8  H   -0.002888   0.548056  -0.029071  -0.027431  -0.000070  -0.000000
     9  H    0.004231  -0.029071   0.549432  -0.027709  -0.000069  -0.000001
    10  H   -0.002506  -0.027431  -0.027709   0.538066  -0.000087   0.000001
    11  C   -0.003198  -0.000070  -0.000069  -0.000087   5.083936   0.352195
    12  C   -0.000064  -0.000000  -0.000001   0.000001   0.352195   5.060631
    13  C   -0.000000  -0.000000  -0.000000  -0.000000  -0.057354   0.340638
    14  H    0.000241  -0.000002   0.000013   0.000001   0.396000  -0.041877
    15  H    0.002397   0.000013  -0.000001   0.000001   0.396125  -0.041824
    16  H   -0.000003   0.000000  -0.000002   0.000000  -0.043637   0.399115
    17  H    0.000017  -0.000002   0.000000   0.000000  -0.043647   0.399100
    18  H   -0.000002   0.000000  -0.000000  -0.000000  -0.003794  -0.038899
    19  H    0.000000  -0.000000   0.000000  -0.000000  -0.003792  -0.038905
    20  H    0.000000  -0.000000  -0.000000   0.000000   0.004399  -0.035836
    21  C   -0.000000  -0.000000  -0.000002  -0.000000   0.000000  -0.000000
    22  C    0.000000  -0.000000  -0.000000  -0.000000  -0.000000   0.000000
    23  C    0.000000  -0.000000  -0.000000   0.000000   0.000000   0.000000
    24  H   -0.000000   0.000000  -0.000000   0.000000  -0.000000  -0.000000
    25  H    0.000000  -0.000000   0.000014  -0.000000   0.000000  -0.000000
    26  H   -0.000000   0.000000   0.000000  -0.000000   0.000000  -0.000000
    27  H    0.000000   0.000000  -0.000000  -0.000000   0.000000  -0.000000
    28  H   -0.000000   0.000000   0.000000   0.000000   0.000000  -0.000000
    29  H   -0.000000  -0.000000   0.000000   0.000000  -0.000000   0.000000
    30  H   -0.000000   0.000000  -0.000000   0.000000  -0.000000   0.000000
    31  C   -0.000000   0.000000  -0.000005  -0.000006  -0.000000   0.000000
    32  C    0.000000  -0.000000   0.000022  -0.000004   0.000000   0.000000
    33  C    0.000009   0.000001  -0.000007   0.000001  -0.000009   0.000000
    34  H    0.000000  -0.000000   0.000001  -0.000000  -0.000000  -0.000000
    35  H    0.000000  -0.000001   0.000122   0.000090  -0.000000   0.000000
    36  H   -0.000000  -0.000000   0.000000   0.000000  -0.000000   0.000000
    37  H    0.000001   0.000000   0.000197  -0.000007  -0.000001  -0.000000
    38  H    0.000023  -0.000003   0.000004   0.000186  -0.000003   0.000000
    39  H   -0.000000   0.000000   0.000000  -0.000000   0.000000  -0.000000
    40  H   -0.000000  -0.000000  -0.000001  -0.000000   0.000001  -0.000000
              13         14         15         16         17         18
     1  C    0.004074  -0.041662  -0.041642  -0.003196  -0.003201  -0.000070
     2  C   -0.000085  -0.003270  -0.003251  -0.000064  -0.000065  -0.000001
     3  C    0.000001  -0.000052  -0.000052  -0.000000  -0.000000  -0.000000
     4  H   -0.000052  -0.002797   0.004465   0.002404   0.000237  -0.000001
     5  H   -0.000052   0.004468  -0.002800   0.000238   0.002407   0.000013
     6  H   -0.000001   0.002386   0.000239   0.000017  -0.000003   0.000000
     7  H   -0.000000   0.000241   0.002397  -0.000003   0.000017  -0.000002
     8  H   -0.000000  -0.000002   0.000013   0.000000  -0.000002   0.000000
     9  H   -0.000000   0.000013  -0.000001  -0.000002   0.000000  -0.000000
    10  H   -0.000000   0.000001   0.000001   0.000000   0.000000  -0.000000
    11  C   -0.057354   0.396000   0.396125  -0.043637  -0.043647  -0.003794
    12  C    0.340638  -0.041877  -0.041824   0.399115   0.399100  -0.038899
    13  C    5.097368  -0.002858  -0.002856  -0.039888  -0.039887   0.391280
    14  H   -0.002858   0.566828  -0.031482  -0.002988   0.004571   0.000158
    15  H   -0.002856  -0.031482   0.566609   0.004566  -0.002974   0.002623
    16  H   -0.039888  -0.002988   0.004566   0.564382  -0.031656   0.004220
    17  H   -0.039887   0.004571  -0.002974  -0.031656   0.564360  -0.002892
    18  H    0.391280   0.000158   0.002623   0.004220  -0.002892   0.548793
    19  H    0.391270   0.002629   0.000158  -0.002892   0.004221  -0.029142
    20  H    0.394100  -0.000059  -0.000059  -0.002506  -0.002506  -0.027493
    21  C    0.000000  -0.000000   0.000000   0.000000  -0.000000   0.000000
    22  C   -0.000000   0.000000   0.000000  -0.000000   0.000000  -0.000000
    23  C    0.000000  -0.000000  -0.000000   0.000000  -0.000000   0.000000
    24  H   -0.000000  -0.000000  -0.000000   0.000000  -0.000000  -0.000000
    25  H    0.000000   0.000000  -0.000000  -0.000000  -0.000000  -0.000000
    26  H    0.000000   0.000000   0.000000   0.000000   0.000000  -0.000000
    27  H    0.000000  -0.000000   0.000000  -0.000000  -0.000000  -0.000000
    28  H    0.000000   0.000000   0.000000   0.000000   0.000000   0.000000
    29  H   -0.000000   0.000000  -0.000000   0.000000  -0.000000   0.000000
    30  H    0.000000   0.000000   0.000000  -0.000000  -0.000000   0.000000
    31  C    0.000000   0.000000   0.000000   0.000000   0.000000  -0.000000
    32  C   -0.000000  -0.000001  -0.000000  -0.000000  -0.000000   0.000000
    33  C    0.000000   0.000011   0.000000  -0.000000  -0.000000  -0.000000
    34  H   -0.000000   0.000000  -0.000000  -0.000000   0.000000   0.000000
    35  H   -0.000000   0.000000  -0.000000   0.000000   0.000000   0.000000
    36  H   -0.000000  -0.000000   0.000000   0.000000  -0.000000  -0.000000
    37  H   -0.000000   0.000001   0.000000  -0.000000   0.000000   0.000000
    38  H    0.000000  -0.000007   0.000000  -0.000000  -0.000000  -0.000000
    39  H    0.000000  -0.000000  -0.000000  -0.000000   0.000000   0.000000
    40  H   -0.000000   0.000108  -0.000000  -0.000000   0.000000  -0.000000
              19         20         21         22         23         24
     1  C   -0.000070  -0.000087  -0.000000   0.000000  -0.000000  -0.000000
     2  C   -0.000000   0.000001   0.000000  -0.000000   0.000000  -0.000000
     3  C   -0.000000  -0.000000  -0.000001   0.000000   0.000000   0.000000
     4  H    0.000013   0.000001  -0.000000   0.000000   0.000000  -0.000000
     5  H   -0.000001   0.000001   0.000000  -0.000000   0.000000   0.000000
     6  H   -0.000002   0.000000  -0.000000   0.000000  -0.000000  -0.000000
     7  H    0.000000   0.000000  -0.000000   0.000000   0.000000  -0.000000
     8  H   -0.000000  -0.000000  -0.000000  -0.000000  -0.000000   0.000000
     9  H    0.000000  -0.000000  -0.000002  -0.000000  -0.000000  -0.000000
    10  H   -0.000000   0.000000  -0.000000  -0.000000   0.000000   0.000000
    11  C   -0.003792   0.004399   0.000000  -0.000000   0.000000  -0.000000
    12  C   -0.038905  -0.035836  -0.000000   0.000000   0.000000  -0.000000
    13  C    0.391270   0.394100   0.000000  -0.000000   0.000000  -0.000000
    14  H    0.002629  -0.000059  -0.000000   0.000000  -0.000000  -0.000000
    15  H    0.000158  -0.000059   0.000000   0.000000  -0.000000  -0.000000
    16  H   -0.002892  -0.002506   0.000000  -0.000000   0.000000   0.000000
    17  H    0.004221  -0.002506  -0.000000   0.000000  -0.000000  -0.000000
    18  H   -0.029142  -0.027493   0.000000  -0.000000   0.000000  -0.000000
    19  H    0.548845  -0.027495   0.000000  -0.000000   0.000000  -0.000000
    20  H   -0.027495   0.537300  -0.000000  -0.000000   0.000000  -0.000000
    21  C    0.000000  -0.000000   5.083899   0.352247  -0.057343   0.396110
    22  C   -0.000000  -0.000000   0.352247   5.060526   0.340623  -0.041804
    23  C    0.000000   0.000000  -0.057343   0.340623   5.097368  -0.002857
    24  H   -0.000000  -0.000000   0.396110  -0.041804  -0.002857   0.566836
    25  H   -0.000000   0.000000   0.396035  -0.041869  -0.002862  -0.031539
    26  H    0.000000  -0.000000  -0.043667   0.399109  -0.039887  -0.002975
    27  H   -0.000000  -0.000000  -0.043622   0.399178  -0.039858   0.004564
    28  H    0.000000  -0.000000  -0.003799  -0.038899   0.391279   0.000159
    29  H   -0.000000   0.000000  -0.003799  -0.038908   0.391261   0.002624
    30  H    0.000000   0.000000   0.004399  -0.035827   0.394119  -0.000059
    31  C   -0.000000   0.000000   0.355467  -0.051900   0.004072  -0.041672
    32  C   -0.000000   0.000000  -0.051902   0.003980  -0.000085  -0.003250
    33  C   -0.000000   0.000000   0.004067  -0.000085   0.000001  -0.000052
    34  H   -0.000000  -0.000000  -0.041721  -0.003251  -0.000052  -0.002807
    35  H   -0.000000   0.000000  -0.041521  -0.003237  -0.000052   0.004450
    36  H   -0.000000   0.000000  -0.003180  -0.000065  -0.000000   0.002402
    37  H    0.000000  -0.000000  -0.003207  -0.000064  -0.000000   0.000238
    38  H    0.000000  -0.000000  -0.000065  -0.000001   0.000000  -0.000001
    39  H    0.000000  -0.000000  -0.000069  -0.000001  -0.000000   0.000013
    40  H    0.000000  -0.000000  -0.000087   0.000001  -0.000000   0.000001
              25         26         27         28         29         30
     1  C   -0.000000   0.000000  -0.000000   0.000000  -0.000000   0.000000
     2  C   -0.000000   0.000000   0.000000   0.000000   0.000000  -0.000000
     3  C   -0.000000  -0.000000  -0.000000  -0.000000  -0.000000   0.000000
     4  H    0.000000   0.000000   0.000000  -0.000000   0.000000  -0.000000
     5  H   -0.000000  -0.000000   0.000000  -0.000000   0.000000  -0.000000
     6  H   -0.000000  -0.000000   0.000000   0.000000   0.000000   0.000000
     7  H    0.000000  -0.000000   0.000000  -0.000000  -0.000000  -0.000000
     8  H   -0.000000   0.000000   0.000000   0.000000  -0.000000   0.000000
     9  H    0.000014   0.000000  -0.000000   0.000000   0.000000  -0.000000
    10  H   -0.000000  -0.000000  -0.000000   0.000000   0.000000   0.000000
    11  C    0.000000   0.000000   0.000000   0.000000  -0.000000  -0.000000
    12  C   -0.000000  -0.000000  -0.000000  -0.000000   0.000000   0.000000
    13  C    0.000000   0.000000   0.000000   0.000000  -0.000000   0.000000
    14  H    0.000000   0.000000  -0.000000   0.000000   0.000000   0.000000
    15  H   -0.000000   0.000000   0.000000   0.000000  -0.000000   0.000000
    16  H   -0.000000   0.000000  -0.000000   0.000000   0.000000  -0.000000
    17  H   -0.000000   0.000000  -0.000000   0.000000  -0.000000  -0.000000
    18  H   -0.000000  -0.000000  -0.000000   0.000000   0.000000   0.000000
    19  H   -0.000000   0.000000  -0.000000   0.000000  -0.000000   0.000000
    20  H    0.000000  -0.000000  -0.000000  -0.000000   0.000000   0.000000
    21  C    0.396035  -0.043667  -0.043622  -0.003799  -0.003799   0.004399
    22  C   -0.041869   0.399109   0.399178  -0.038899  -0.038908  -0.035827
    23  C   -0.002862  -0.039887  -0.039858   0.391279   0.391261   0.394119
    24  H   -0.031539  -0.002975   0.004564   0.000159   0.002624  -0.000059
    25  H    0.567365   0.004574  -0.002987   0.002626   0.000158  -0.000059
    26  H    0.004574   0.564334  -0.031630   0.004220  -0.002893  -0.002505
    27  H   -0.002987  -0.031630   0.563850  -0.002891   0.004218  -0.002505
    28  H    0.002626   0.004220  -0.002891   0.548775  -0.029152  -0.027480
    29  H    0.000158  -0.002893   0.004218  -0.029152   0.548910  -0.027491
    30  H   -0.000059  -0.002505  -0.002505  -0.027480  -0.027491   0.537153
    31  C   -0.041737  -0.003202  -0.003184  -0.000070  -0.000070  -0.000087
    32  C   -0.003271  -0.000064  -0.000065  -0.000001  -0.000001   0.000001
    33  C   -0.000052  -0.000000  -0.000000  -0.000000  -0.000000  -0.000000
    34  H    0.004473   0.002407   0.000236  -0.000001   0.000013   0.000001
    35  H   -0.002801   0.000235   0.002400   0.000013  -0.000001   0.000001
    36  H    0.000239   0.000017  -0.000003   0.000000  -0.000002   0.000000
    37  H    0.002405  -0.000003   0.000017  -0.000002   0.000000   0.000000
    38  H    0.000013   0.000000  -0.000002   0.000000  -0.000000  -0.000000
    39  H   -0.000001  -0.000002   0.000000  -0.000000   0.000000  -0.000000
    40  H    0.000001   0.000000   0.000000  -0.000000  -0.000000   0.000000
              31         32         33         34         35         36
     1  C    0.000000  -0.000014   0.000037  -0.000000   0.000000   0.000000
     2  C   -0.000002   0.000046  -0.000714  -0.000000  -0.000011  -0.000001
     3  C   -0.000026  -0.000020   0.000017   0.000000   0.000099   0.000001
     4  H   -0.000000  -0.000000   0.000002   0.000000  -0.000000  -0.000000
     5  H   -0.000000   0.000000  -0.000000   0.000000   0.000000  -0.000000
     6  H   -0.000002   0.000026  -0.000371   0.000000  -0.000015  -0.000003
     7  H   -0.000000   0.000000   0.000009   0.000000   0.000000  -0.000000
     8  H    0.000000  -0.000000   0.000001  -0.000000  -0.000001  -0.000000
     9  H   -0.000005   0.000022  -0.000007   0.000001   0.000122   0.000000
    10  H   -0.000006  -0.000004   0.000001  -0.000000   0.000090   0.000000
    11  C   -0.000000   0.000000  -0.000009  -0.000000  -0.000000  -0.000000
    12  C    0.000000   0.000000   0.000000  -0.000000   0.000000   0.000000
    13  C    0.000000  -0.000000   0.000000  -0.000000  -0.000000  -0.000000
    14  H    0.000000  -0.000001   0.000011   0.000000   0.000000  -0.000000
    15  H    0.000000  -0.000000   0.000000  -0.000000  -0.000000   0.000000
    16  H    0.000000  -0.000000  -0.000000  -0.000000   0.000000   0.000000
    17  H    0.000000  -0.000000  -0.000000   0.000000   0.000000  -0.000000
    18  H   -0.000000   0.000000  -0.000000   0.000000   0.000000  -0.000000
    19  H   -0.000000  -0.000000  -0.000000  -0.000000  -0.000000  -0.000000
    20  H    0.000000   0.000000   0.000000  -0.000000   0.000000   0.000000
    21  C    0.355467  -0.051902   0.004067  -0.041721  -0.041521  -0.003180
    22  C   -0.051900   0.003980  -0.000085  -0.003251  -0.003237  -0.000065
    23  C    0.004072  -0.000085   0.000001  -0.000052  -0.000052  -0.000000
    24  H   -0.041672  -0.003250  -0.000052  -0.002807   0.004450   0.002402
    25  H   -0.041737  -0.003271  -0.000052   0.004473  -0.002801   0.000239
    26  H   -0.003202  -0.000064  -0.000000   0.002407   0.000235   0.000017
    27  H   -0.003184  -0.000065  -0.000000   0.000236   0.002400  -0.000003
    28  H   -0.000070  -0.000001  -0.000000  -0.000001   0.000013   0.000000
    29  H   -0.000070  -0.000001  -0.000000   0.000013  -0.000001  -0.000002
    30  H   -0.000087   0.000001  -0.000000   0.000001   0.000001   0.000000
    31  C    5.084997   0.352072  -0.057176   0.396070   0.396109  -0.043623
    32  C    0.352072   5.061462   0.339844  -0.041948  -0.041693   0.399226
    33  C   -0.057176   0.339844   5.104569  -0.002835  -0.002919  -0.039831
    34  H    0.396070  -0.041948  -0.002835   0.566917  -0.031395  -0.002975
    35  H    0.396109  -0.041693  -0.002919  -0.031395   0.564738   0.004545
    36  H   -0.043623   0.399226  -0.039831  -0.002975   0.004545   0.563871
    37  H   -0.043603   0.398824  -0.039988   0.004575  -0.002976  -0.031671
    38  H   -0.003789  -0.038743   0.391117   0.000142   0.002655   0.004229
    39  H   -0.003818  -0.038554   0.390335   0.002601   0.000165  -0.002875
    40  H    0.004409  -0.035845   0.394276  -0.000058  -0.000056  -0.002531
              37         38         39         40
     1  C   -0.000002   0.000018  -0.000000  -0.000002
     2  C    0.000045  -0.000616   0.000015  -0.000035
     3  C   -0.000007   0.000251  -0.000001  -0.000003
     4  H    0.000088   0.000002   0.000000  -0.000001
     5  H    0.000000  -0.000000   0.000000   0.000000
     6  H    0.000141   0.000300   0.000034   0.000330
     7  H    0.000001   0.000023  -0.000000  -0.000000
     8  H    0.000000  -0.000003   0.000000  -0.000000
     9  H    0.000197   0.000004   0.000000  -0.000001
    10  H   -0.000007   0.000186  -0.000000  -0.000000
    11  C   -0.000001  -0.000003   0.000000   0.000001
    12  C   -0.000000   0.000000  -0.000000  -0.000000
    13  C   -0.000000   0.000000   0.000000  -0.000000
    14  H    0.000001  -0.000007  -0.000000   0.000108
    15  H    0.000000   0.000000  -0.000000  -0.000000
    16  H   -0.000000  -0.000000  -0.000000  -0.000000
    17  H    0.000000  -0.000000   0.000000   0.000000
    18  H    0.000000  -0.000000   0.000000  -0.000000
    19  H    0.000000   0.000000   0.000000   0.000000
    20  H   -0.000000  -0.000000  -0.000000  -0.000000
    21  C   -0.003207  -0.000065  -0.000069  -0.000087
    22  C   -0.000064  -0.000001  -0.000001   0.000001
    23  C   -0.000000   0.000000  -0.000000  -0.000000
    24  H    0.000238  -0.000001   0.000013   0.000001
    25  H    0.002405   0.000013  -0.000001   0.000001
    26  H   -0.000003   0.000000  -0.000002   0.000000
    27  H    0.000017  -0.000002   0.000000   0.000000
    28  H   -0.000002   0.000000  -0.000000  -0.000000
    29  H    0.000000  -0.000000   0.000000  -0.000000
    30  H    0.000000  -0.000000  -0.000000   0.000000
    31  C   -0.043603  -0.003789  -0.003818   0.004409
    32  C    0.398824  -0.038743  -0.038554  -0.035845
    33  C   -0.039988   0.391117   0.390335   0.394276
    34  H    0.004575   0.000142   0.002601  -0.000058
    35  H   -0.002976   0.002655   0.000165  -0.000056
    36  H   -0.031671   0.004229  -0.002875  -0.002531
    37  H    0.564847  -0.003095   0.004221  -0.002505
    38  H   -0.003095   0.544520  -0.028821  -0.028486
    39  H    0.004221  -0.028821   0.548301  -0.027437
    40  H   -0.002505  -0.028486  -0.027437   0.538524
 Mulliken charges:
               1
     1  C   -0.297669
     2  C   -0.307890
     3  C   -0.476526
     4  H    0.149049
     5  H    0.149331
     6  H    0.161245
     7  H    0.151825
     8  H    0.155706
     9  H    0.154750
    10  H    0.159679
    11  C   -0.298403
    12  C   -0.299669
    13  C   -0.475699
    14  H    0.149639
    15  H    0.149744
    16  H    0.151892
    17  H    0.151919
    18  H    0.155206
    19  H    0.155164
    20  H    0.160242
    21  C   -0.298238
    22  C   -0.299753
    23  C   -0.475725
    24  H    0.149620
    25  H    0.149275
    26  H    0.151932
    27  H    0.152284
    28  H    0.155222
    29  H    0.155130
    30  H    0.160339
    31  C   -0.299226
    32  C   -0.300042
    33  C   -0.480247
    34  H    0.149610
    35  H    0.151056
    36  H    0.152230
    37  H    0.151532
    38  H    0.160173
    39  H    0.155893
    40  H    0.159399
 Sum of Mulliken charges =  -0.00000
 Mulliken charges with hydrogens summed into heavy atoms:
               1
     1  C    0.000712
     2  C    0.005180
     3  C   -0.006391
    11  C    0.000980
    12  C    0.004142
    13  C   -0.005087
    21  C    0.000657
    22  C    0.004463
    23  C   -0.005034
    31  C    0.001440
    32  C    0.003720
    33  C   -0.004781
 Electronic spatial extent (au):  <R**2>=           6463.5154
 Charge=             -0.0000 electrons
 Dipole moment (field-independent basis, Debye):
    X=              0.0126    Y=             -0.0084    Z=              0.0196  Tot=              0.0248
 Quadrupole moment (field-independent basis, Debye-Ang):
   XX=            -85.2523   YY=            -84.2124   ZZ=            -85.2824
   XY=             -1.6773   XZ=              0.5377   YZ=              0.1778
 Traceless Quadrupole moment (field-independent basis, Debye-Ang):
   XX=             -0.3366   YY=              0.7033   ZZ=             -0.3667
   XY=             -1.6773   XZ=              0.5377   YZ=              0.1778
 Octapole moment (field-independent basis, Debye-Ang**2):
  XXX=             -0.0545  YYY=             -1.2015  ZZZ=             -0.0633  XYY=              1.9928
  XXY=              3.4419  XXZ=              6.4119  XZZ=             -2.2043  YZZ=              0.3038
  YYZ=              0.3411  XYZ=             -1.4966
 Hexadecapole moment (field-independent basis, Debye-Ang**3):
 XXXX=          -7634.1443 YYYY=           -912.3811 ZZZZ=           -665.4793 XXXY=            -62.8666
 XXXZ=             27.0090 YYYX=            -13.4352 YYYZ=             -0.7465 ZZZX=             11.4306
 ZZZY=              3.4034 XXYY=          -1405.7892 XXZZ=          -1384.5931 YYZZ=           -262.3233
 XXYZ=              3.4735 YYXZ=             -0.2376 ZZXY=             -2.3568
 N-N= 6.840955224707D+02 E-N=-2.461313523239D+03  KE= 4.702254789040D+02
 Leave Link  601 at Thu May  6 07:12:20 2021, MaxMem=   524288000 cpu:               0.3 elap:               0.3
 (Enter /opt/gaussian/g16_legacy/l9999.exe)
 1\1\GINC-TRUENO93\SP\RMP2-FC\6-31G(d)\C12H28\JRAMOS\06-May-2021\0\\#p 
 6-31g* mp2\\Input file generated by CHIRIPA (05-May-2021 14:51:14)\\0,
 1\C,0,-0.666,-0.374,0.\C,0,-1.882,0.553,0.\C,0,-3.207,-0.21,0.\H,0,-0.
 713,-1.03,-0.88\H,0,-0.713,-1.029,0.881\H,0,-1.832,1.207,-0.88\H,0,-1.
 832,1.207,0.88\H,0,-3.283,-0.85,0.885\H,0,-3.283,-0.85,-0.885\H,0,-4.0
 63,0.472,0.\C,0,0.666,0.374,0.\C,0,1.882,-0.553,0.\C,0,3.207,0.21,0.\H
 ,0,0.713,1.029,-0.881\H,0,0.713,1.03,0.88\H,0,1.832,-1.207,-0.88\H,0,1
 .832,-1.207,0.88\H,0,3.283,0.85,0.885\H,0,3.283,0.85,-0.885\H,0,4.063,
 -0.472,0.\C,0,-4.776275,-0.401432,-5.487223\C,0,-6.280174,-0.644372,-5
 .618571\C,0,-6.608288,-1.882254,-6.453905\H,0,-4.339499,-0.295385,-6.4
 89683\H,0,-4.307287,-1.285697,-5.033878\H,0,-6.746384,0.240636,-6.0702
 62\H,0,-6.713453,-0.749662,-4.615675\H,0,-6.169837,-2.778464,-6.003161
 \H,0,-6.202956,-1.78254,-7.466014\H,0,-7.688715,-2.037112,-6.534873\C,
 0,-4.432362,0.832544,-4.654905\C,0,-2.928462,1.075484,-4.523557\C,0,-2
 .600349,2.313366,-3.688223\H,0,-4.901349,1.716809,-5.10825\H,0,-4.8691
 38,0.726497,-3.652445\H,0,-2.495184,1.180774,-5.526453\H,0,-2.462252,0
 .190476,-4.071866\H,0,-3.005681,2.213652,-2.676114\H,0,-3.038799,3.209
 577,-4.138967\H,0,-1.519922,2.468224,-3.607255\\Version=EM64L-G16RevA.
 03\State=1-A\HF=-470.7332013\MP2=-472.3163019\RMSD=1.955e-09\PG=C01 [X
 (C12H28)]\\@


 ONE OF THE BENEFITS OF A COLLEGE EDUCATION
 IS TO SHOW THE BOY ITS LITTLE AVAIL 
                                    EMERSON IN 'CULTURE'
 Job cpu time:       0 days  0 hours  1 minutes 56.9 seconds.
 Elapsed time:       0 days  0 hours  1 minutes  3.2 seconds.
 File lengths (MBytes):  RWF=     26 Int=      0 D2E=      0 Chk=      5 Scr=      1
 Normal termination of Gaussian 16 at Thu May  6 07:12:20 2021.
