 Entering Gaussian System, Link 0=/opt/gaussian/g16_legacy/g16
 Input=gaussian_01786_1_1.com
 Output=gaussian_01786_1_1.log
 Initial command:
 /opt/gaussian/g16_legacy/l1.exe "/scratch-local/jramos/2586391/Gau-22782.inp" -scrdir="/scratch-local/jramos/2586391/"
 Entering Link 1 = /opt/gaussian/g16_legacy/l1.exe PID=     22783.
  
 Copyright (c) 1988,1990,1992,1993,1995,1998,2003,2009,2016,
            Gaussian, Inc.  All Rights Reserved.
  
 This is part of the Gaussian(R) 16 program.  It is based on
 the Gaussian(R) 09 system (copyright 2009, Gaussian, Inc.),
 the Gaussian(R) 03 system (copyright 2003, Gaussian, Inc.),
 the Gaussian(R) 98 system (copyright 1998, Gaussian, Inc.),
 the Gaussian(R) 94 system (copyright 1995, Gaussian, Inc.),
 the Gaussian 92(TM) system (copyright 1992, Gaussian, Inc.),
 the Gaussian 90(TM) system (copyright 1990, Gaussian, Inc.),
 the Gaussian 88(TM) system (copyright 1988, Gaussian, Inc.),
 the Gaussian 86(TM) system (copyright 1986, Carnegie Mellon
 University), and the Gaussian 82(TM) system (copyright 1983,
 Carnegie Mellon University). Gaussian is a federally registered
 trademark of Gaussian, Inc.
  
 This software contains proprietary and confidential information,
 including trade secrets, belonging to Gaussian, Inc.
  
 This software is provided under written license and may be
 used, copied, transmitted, or stored only in accord with that
 written license.
  
 The following legend is applicable only to US Government
 contracts under FAR:
  
                    RESTRICTED RIGHTS LEGEND
  
 Use, reproduction and disclosure by the US Government is
 subject to restrictions as set forth in subparagraphs (a)
 and (c) of the Commercial Computer Software - Restricted
 Rights clause in FAR 52.227-19.
  
 Gaussian, Inc.
 340 Quinnipiac St., Bldg. 40, Wallingford CT 06492
  
  
 ---------------------------------------------------------------
 Warning -- This program may not be used in any manner that
 competes with the business of Gaussian, Inc. or will provide
 assistance to any competitor of Gaussian, Inc.  The licensee
 of this program is prohibited from giving any competitor of
 Gaussian, Inc. access to this program.  By using this program,
 the user acknowledges that Gaussian, Inc. is engaged in the
 business of creating and licensing software in the field of
 computational chemistry and represents and warrants to the
 licensee that it is not a competitor of Gaussian, Inc. and that
 it will not use this program in any manner prohibited above.
 ---------------------------------------------------------------
  

 Cite this work as:
 Gaussian 16, Revision A.03,
 M. J. Frisch, G. W. Trucks, H. B. Schlegel, G. E. Scuseria, 
 M. A. Robb, J. R. Cheeseman, G. Scalmani, V. Barone, 
 G. A. Petersson, H. Nakatsuji, X. Li, M. Caricato, A. V. Marenich, 
 J. Bloino, B. G. Janesko, R. Gomperts, B. Mennucci, H. P. Hratchian, 
 J. V. Ortiz, A. F. Izmaylov, J. L. Sonnenberg, D. Williams-Young, 
 F. Ding, F. Lipparini, F. Egidi, J. Goings, B. Peng, A. Petrone, 
 T. Henderson, D. Ranasinghe, V. G. Zakrzewski, J. Gao, N. Rega, 
 G. Zheng, W. Liang, M. Hada, M. Ehara, K. Toyota, R. Fukuda, 
 J. Hasegawa, M. Ishida, T. Nakajima, Y. Honda, O. Kitao, H. Nakai, 
 T. Vreven, K. Throssell, J. A. Montgomery, Jr., J. E. Peralta, 
 F. Ogliaro, M. J. Bearpark, J. J. Heyd, E. N. Brothers, K. N. Kudin, 
 V. N. Staroverov, T. A. Keith, R. Kobayashi, J. Normand, 
 K. Raghavachari, A. P. Rendell, J. C. Burant, S. S. Iyengar, 
 J. Tomasi, M. Cossi, J. M. Millam, M. Klene, C. Adamo, R. Cammi, 
 J. W. Ochterski, R. L. Martin, K. Morokuma, O. Farkas, 
 J. B. Foresman, and D. J. Fox, Gaussian, Inc., Wallingford CT, 2016.
 
 ******************************************
 Gaussian 16:  EM64L-G16RevA.03 25-Dec-2016
                 5-May-2021 
 ******************************************
 %chk=gaussian_01786_1_1.chk
 %nproc=2
 Will use up to    2 processors via shared memory.
 %mem=4000Mb
 -------------
 #p 6-31g* mp2
 -------------
 1/38=1,172=1/1;
 2/12=2,17=6,18=5,40=1/2;
 3/5=1,6=6,7=1,11=9,25=1,30=1/1,2,3;
 4//1;
 5/5=2,38=5/2;
 8/10=2/1;
 9/16=-3/6;
 6/7=2,8=2,9=2,10=2/1;
 99/5=1,9=1/99;
 Leave Link    1 at Wed May  5 19:44:54 2021, MaxMem=   524288000 cpu:               0.0 elap:               0.1
 (Enter /opt/gaussian/g16_legacy/l101.exe)
 ------------------------------------------------------
 Input file generated by CHIRIPA (05-May-2021 14:51:10)
 ------------------------------------------------------
 Symbolic Z-matrix:
 Charge =  0 Multiplicity = 1
 C                    -0.666    -0.374     0. 
 C                    -1.882     0.553     0. 
 C                    -3.207    -0.21      0. 
 H                    -0.713    -1.03     -0.88 
 H                    -0.713    -1.029     0.881 
 H                    -1.832     1.207    -0.88 
 H                    -1.832     1.207     0.88 
 H                    -3.283    -0.85      0.885 
 H                    -3.283    -0.85     -0.885 
 H                    -4.063     0.472     0. 
 C                     0.666     0.374     0. 
 C                     1.882    -0.553     0. 
 C                     3.207     0.21      0. 
 H                     0.713     1.029    -0.881 
 H                     0.713     1.03      0.88 
 H                     1.832    -1.207    -0.88 
 H                     1.832    -1.207     0.88 
 H                     3.283     0.85      0.885 
 H                     3.283     0.85     -0.885 
 H                     4.063    -0.472     0. 
 C                    -3.46131   4.34844  -3.54395 
 C                    -4.01442   3.25359  -4.45683 
 C                    -3.98623   3.64575  -5.9344 
 H                    -4.04291   5.26869  -3.6917 
 H                    -2.42958   4.57927  -3.84338 
 H                    -5.04432   3.02392  -4.15488 
 H                    -3.43156   2.33579  -4.30674 
 H                    -2.9615    3.85525  -6.25788 
 H                    -4.58343   4.5473   -6.10515 
 H                    -4.38606   2.84871  -6.569 
 C                    -3.48288   3.97123  -2.06375 
 C                    -2.92977   5.06608  -1.15087 
 C                    -2.95796   4.67392   0.3267 
 H                    -4.5146    3.7404   -1.76432 
 H                    -2.90128   3.05098  -1.916 
 H                    -3.51263   5.98388  -1.30096 
 H                    -1.89987   5.29574  -1.45282 
 H                    -2.36076   3.77237   0.49746 
 H                    -3.98269   4.46441   0.65018 
 H                    -2.55812   5.47096   0.9613 
 
 ITRead=  0  0  0  0  0  0  0  0  0  0  0  0  0  0  0  0  0  0  0  0
 ITRead=  0  0  0  0  0  0  0  0  0  0  0  0  0  0  0  0  0  0  0  0
 MicOpt= -1 -1 -1 -1 -1 -1 -1 -1 -1 -1 -1 -1 -1 -1 -1 -1 -1 -1 -1 -1
 MicOpt= -1 -1 -1 -1 -1 -1 -1 -1 -1 -1 -1 -1 -1 -1 -1 -1 -1 -1 -1 -1
 NAtoms=     40 NQM=       40 NQMF=       0 NMMI=      0 NMMIF=      0
                NMic=       0 NMicF=      0.
                    Isotopes and Nuclear Properties:
 (Nuclear quadrupole moments (NQMom) in fm**2, nuclear magnetic moments (NMagM)
  in nuclear magnetons)

  Atom         1           2           3           4           5           6           7           8           9          10
 IAtWgt=          12          12          12           1           1           1           1           1           1           1
 AtmWgt=  12.0000000  12.0000000  12.0000000   1.0078250   1.0078250   1.0078250   1.0078250   1.0078250   1.0078250   1.0078250
 NucSpn=           0           0           0           1           1           1           1           1           1           1
 AtZEff=  -0.0000000  -0.0000000  -0.0000000  -0.0000000  -0.0000000  -0.0000000  -0.0000000  -0.0000000  -0.0000000  -0.0000000
 NQMom=    0.0000000   0.0000000   0.0000000   0.0000000   0.0000000   0.0000000   0.0000000   0.0000000   0.0000000   0.0000000
 NMagM=    0.0000000   0.0000000   0.0000000   2.7928460   2.7928460   2.7928460   2.7928460   2.7928460   2.7928460   2.7928460
 AtZNuc=   6.0000000   6.0000000   6.0000000   1.0000000   1.0000000   1.0000000   1.0000000   1.0000000   1.0000000   1.0000000

  Atom        11          12          13          14          15          16          17          18          19          20
 IAtWgt=          12          12          12           1           1           1           1           1           1           1
 AtmWgt=  12.0000000  12.0000000  12.0000000   1.0078250   1.0078250   1.0078250   1.0078250   1.0078250   1.0078250   1.0078250
 NucSpn=           0           0           0           1           1           1           1           1           1           1
 AtZEff=  -0.0000000  -0.0000000  -0.0000000  -0.0000000  -0.0000000  -0.0000000  -0.0000000  -0.0000000  -0.0000000  -0.0000000
 NQMom=    0.0000000   0.0000000   0.0000000   0.0000000   0.0000000   0.0000000   0.0000000   0.0000000   0.0000000   0.0000000
 NMagM=    0.0000000   0.0000000   0.0000000   2.7928460   2.7928460   2.7928460   2.7928460   2.7928460   2.7928460   2.7928460
 AtZNuc=   6.0000000   6.0000000   6.0000000   1.0000000   1.0000000   1.0000000   1.0000000   1.0000000   1.0000000   1.0000000

  Atom        21          22          23          24          25          26          27          28          29          30
 IAtWgt=          12          12          12           1           1           1           1           1           1           1
 AtmWgt=  12.0000000  12.0000000  12.0000000   1.0078250   1.0078250   1.0078250   1.0078250   1.0078250   1.0078250   1.0078250
 NucSpn=           0           0           0           1           1           1           1           1           1           1
 AtZEff=  -0.0000000  -0.0000000  -0.0000000  -0.0000000  -0.0000000  -0.0000000  -0.0000000  -0.0000000  -0.0000000  -0.0000000
 NQMom=    0.0000000   0.0000000   0.0000000   0.0000000   0.0000000   0.0000000   0.0000000   0.0000000   0.0000000   0.0000000
 NMagM=    0.0000000   0.0000000   0.0000000   2.7928460   2.7928460   2.7928460   2.7928460   2.7928460   2.7928460   2.7928460
 AtZNuc=   6.0000000   6.0000000   6.0000000   1.0000000   1.0000000   1.0000000   1.0000000   1.0000000   1.0000000   1.0000000

  Atom        31          32          33          34          35          36          37          38          39          40
 IAtWgt=          12          12          12           1           1           1           1           1           1           1
 AtmWgt=  12.0000000  12.0000000  12.0000000   1.0078250   1.0078250   1.0078250   1.0078250   1.0078250   1.0078250   1.0078250
 NucSpn=           0           0           0           1           1           1           1           1           1           1
 AtZEff=  -0.0000000  -0.0000000  -0.0000000  -0.0000000  -0.0000000  -0.0000000  -0.0000000  -0.0000000  -0.0000000  -0.0000000
 NQMom=    0.0000000   0.0000000   0.0000000   0.0000000   0.0000000   0.0000000   0.0000000   0.0000000   0.0000000   0.0000000
 NMagM=    0.0000000   0.0000000   0.0000000   2.7928460   2.7928460   2.7928460   2.7928460   2.7928460   2.7928460   2.7928460
 AtZNuc=   6.0000000   6.0000000   6.0000000   1.0000000   1.0000000   1.0000000   1.0000000   1.0000000   1.0000000   1.0000000
 Leave Link  101 at Wed May  5 19:44:55 2021, MaxMem=   524288000 cpu:               0.1 elap:               0.1
 (Enter /opt/gaussian/g16_legacy/l202.exe)
                          Input orientation:                          
 ---------------------------------------------------------------------
 Center     Atomic      Atomic             Coordinates (Angstroms)
 Number     Number       Type             X           Y           Z
 ---------------------------------------------------------------------
      1          6           0       -0.666000   -0.374000    0.000000
      2          6           0       -1.882000    0.553000    0.000000
      3          6           0       -3.207000   -0.210000    0.000000
      4          1           0       -0.713000   -1.030000   -0.880000
      5          1           0       -0.713000   -1.029000    0.881000
      6          1           0       -1.832000    1.207000   -0.880000
      7          1           0       -1.832000    1.207000    0.880000
      8          1           0       -3.283000   -0.850000    0.885000
      9          1           0       -3.283000   -0.850000   -0.885000
     10          1           0       -4.063000    0.472000    0.000000
     11          6           0        0.666000    0.374000    0.000000
     12          6           0        1.882000   -0.553000    0.000000
     13          6           0        3.207000    0.210000    0.000000
     14          1           0        0.713000    1.029000   -0.881000
     15          1           0        0.713000    1.030000    0.880000
     16          1           0        1.832000   -1.207000   -0.880000
     17          1           0        1.832000   -1.207000    0.880000
     18          1           0        3.283000    0.850000    0.885000
     19          1           0        3.283000    0.850000   -0.885000
     20          1           0        4.063000   -0.472000    0.000000
     21          6           0       -3.461307    4.348440   -3.543945
     22          6           0       -4.014420    3.253589   -4.456827
     23          6           0       -3.986226    3.645746   -5.934396
     24          1           0       -4.042908    5.268687   -3.691700
     25          1           0       -2.429583    4.579266   -3.843377
     26          1           0       -5.044321    3.023923   -4.154878
     27          1           0       -3.431557    2.335787   -4.306741
     28          1           0       -2.961499    3.855252   -6.257881
     29          1           0       -4.583426    4.547298   -6.105155
     30          1           0       -4.386064    2.848709   -6.569000
     31          6           0       -3.482878    3.971225   -2.063752
     32          6           0       -2.929766    5.066076   -1.150870
     33          6           0       -2.957959    4.673919    0.326700
     34          1           0       -4.514602    3.740399   -1.764319
     35          1           0       -2.901278    3.050978   -1.915996
     36          1           0       -3.512629    5.983879   -1.300956
     37          1           0       -1.899865    5.295743   -1.452819
     38          1           0       -2.360759    3.772368    0.497458
     39          1           0       -3.982687    4.464414    0.650184
     40          1           0       -2.558122    5.470957    0.961303
 ---------------------------------------------------------------------
                    Distance matrix (angstroms):
                    1          2          3          4          5
     1  C    0.000000
     2  C    1.529047   0.000000
     3  C    2.546287   1.528985   0.000000
     4  H    1.098610   2.155655   2.768905   0.000000
     5  H    1.098815   2.155330   2.768927   1.761000   0.000000
     6  H    2.152561   1.097550   2.161692   2.501266   3.058264
     7  H    2.152561   1.097550   2.161692   3.058420   2.500372
     8  H    2.803300   2.171275   1.094806   3.122903   2.576229
     9  H    2.803300   2.171275   1.094806   2.576301   3.123411
    10  H    3.500761   2.182504   1.094468   3.775302   3.775137
    11  C    1.527654   2.554280   3.916782   2.155750   2.155507
    12  C    2.554280   3.923128   5.100546   2.781358   2.781504
    13  C    3.916782   5.100546   6.427736   4.204569   4.204484
    14  H    2.155507   2.781504   4.204484   2.504587   3.061615
    15  H    2.155750   2.781358   4.204569   3.061809   2.504587
    16  H    2.776381   4.203070   5.211519   2.551148   3.099973
    17  H    2.776381   4.203070   5.211519   3.099347   2.551217
    18  H    4.228002   5.248682   6.635279   4.755801   4.415730
    19  H    4.228002   5.248682   6.635279   4.416157   4.755777
    20  H    4.730015   6.032715   7.274720   4.888347   4.888413
    21  C    6.532590   5.427626   5.779584   6.601319   7.486668
    22  C    6.650912   5.630604   5.701902   6.483996   7.598180
    23  C    7.899324   7.014977   7.119763   7.623879   8.889144
    24  H    7.541358   6.366779   6.659084   7.659465   8.465148
    25  H    6.512804   5.593050   6.189749   6.572072   7.531205
    26  H    6.926658   5.776569   5.576470   6.776390   7.781169
    27  H    5.791310   4.911973   5.007941   5.519205   6.754628
    28  H    7.894109   7.157602   7.466433   7.605461   8.937298
    29  H    8.765747   7.779784   7.861256   8.566720   9.740722
    30  H    8.208318   7.395429   7.341502   7.803877   9.166817
    31  C    5.574482   4.301877   4.670955   5.838300   6.430089
    32  C    6.003629   4.773905   5.407249   6.492270   6.796506
    33  C    5.553494   4.271580   4.901165   6.247452   6.153891
    34  H    5.903629   4.494767   4.519767   6.163676   6.648087
    35  H    4.516413   3.309058   3.794533   4.745127   5.409063
    36  H    7.086495   5.817722   6.336405   7.563704   7.859983
    37  H    5.981563   4.960304   5.842302   6.461563   6.845271
    38  H    4.506888   3.292568   4.101566   5.260726   5.090712
    39  H    5.901983   4.487180   4.782737   6.574261   6.397009
    40  H    6.218340   5.056436   5.798139   7.004093   6.757245
                    6          7          8          9         10
     6  H    0.000000
     7  H    1.760000   0.000000
     8  H    3.074390   2.517275   0.000000
     9  H    2.517275   3.074390   1.770000   0.000000
    10  H    2.508383   2.508383   1.771810   1.771810   0.000000
    11  C    2.776381   2.776381   4.228002   4.228002   4.730015
    12  C    4.203070   4.203070   5.248682   5.248682   6.032715
    13  C    5.211519   5.211519   6.635279   6.635279   7.274720
    14  H    2.551217   3.099973   4.755777   4.415730   4.888413
    15  H    3.099347   2.551148   4.416157   4.755801   4.888347
    16  H    4.387743   4.727567   5.422721   5.127446   6.192291
    17  H    4.727567   4.387743   5.127446   5.422721   6.192291
    18  H    5.422721   5.127446   6.782504   7.009654   7.408767
    19  H    5.127446   5.422721   7.009654   6.782504   7.408767
    20  H    6.192291   6.192291   7.408767   7.408767   8.180649
    21  C    4.429434   5.665207   6.831627   5.841709   5.286622
    22  C    4.663172   6.118268   6.775657   5.489296   5.253847
    23  C    6.011247   7.551435   8.198196   6.797254   6.730202
    24  H    5.412123   6.502758   7.678670   6.774463   6.052872
    25  H    4.528895   5.834344   7.250021   6.241574   5.857408
    26  H    4.934069   6.242613   6.596204   5.366715   4.973762
    27  H    3.946555   5.543918   6.093068   4.677566   4.735023
    28  H    6.100050   7.696645   8.559411   7.149168   7.198665
    29  H    6.784555   8.217075   8.926601   7.620496   7.358792
    30  H    6.448502   8.044007   8.394005   6.870593   6.993202
    31  C    3.430395   4.362570   5.655024   4.967255   4.103680
    32  C    4.021309   4.496887   6.266538   5.932572   4.869728
    33  C    3.839718   3.686930   5.561567   5.664587   4.357060
    34  H    3.794270   4.539481   5.441277   4.833405   3.741550
    35  H    2.370000   3.515850   4.817564   4.052936   3.416397
    36  H    5.081367   5.513588   7.178651   6.850376   5.690009
    37  H    4.129231   4.707916   6.719272   6.325001   5.482548
    38  H    2.959407   2.647081   4.729377   4.912027   3.746668
    39  H    4.192572   3.910117   5.365417   5.575782   4.045808
    40  H    4.700955   4.326106   6.362843   6.624861   5.308327
                   11         12         13         14         15
    11  C    0.000000
    12  C    1.529047   0.000000
    13  C    2.546287   1.528985   0.000000
    14  H    1.098815   2.155330   2.768927   0.000000
    15  H    1.098610   2.155655   2.768905   1.761000   0.000000
    16  H    2.152561   1.097550   2.161692   2.500372   3.058420
    17  H    2.152561   1.097550   2.161692   3.058264   2.501266
    18  H    2.803300   2.171275   1.094806   3.123411   2.576301
    19  H    2.803300   2.171275   1.094806   2.576229   3.122903
    20  H    3.500761   2.182504   1.094468   3.775137   3.775302
    21  C    6.737238   8.070600   8.611187   5.961107   6.928793
    22  C    7.075427   8.313916   9.015301   6.331180   7.468237
    23  C    8.219768   9.342516   9.938003   7.380169   8.681062
    24  H    7.730487   9.089842   9.580195   6.963738   7.841273
    25  H    6.483706   7.726671   8.101426   5.590697   6.692041
    26  H    7.542736   8.833533   9.657405   6.916989   7.903953
    27  H    6.259920   7.424756   8.193743   5.533602   6.766440
    28  H    8.027387   9.058325   9.513113   7.099330   8.510778
    29  H    9.068947  10.251229  10.806286   8.229359   9.445417
    30  H    8.648659   9.695979  10.381193   7.852715   9.208461
    31  C    5.866199   7.315026   7.947349   5.259371   5.909473
    32  C    6.022426   7.486762   7.909859   5.444314   5.803799
    33  C    5.632860   7.131102   7.618400   5.312242   5.201944
    34  H    6.425270   7.903329   8.671775   5.954810   6.454960
    35  H    4.854145   6.288040   7.003803   4.268796   4.996494
    36  H    7.115066   8.574689   8.954528   6.525575   6.866835
    37  H    5.737412   7.114842   7.352247   5.035786   5.519572
    38  H    4.577951   6.079250   6.628565   4.344446   4.137018
    39  H    6.226116   7.745433   8.379402   6.016317   5.822155
    40  H    6.107212   7.544988   7.863740   5.815952   5.516244
                   16         17         18         19         20
    16  H    0.000000
    17  H    1.760000   0.000000
    18  H    3.074390   2.517275   0.000000
    19  H    2.517275   3.074390   1.770000   0.000000
    20  H    2.508383   2.508383   1.771810   1.771810   0.000000
    21  C    8.122722   8.857387   8.794334   8.049518   9.613084
    22  C    8.177480   9.086210   9.357601   8.472752   9.949273
    23  C    9.107569  10.190039  10.351908   9.281931  10.814940
    24  H    9.184483   9.866585   9.702572   9.003960  10.596692
    25  H    7.773260   8.599550   8.300517   7.435928   9.079673
    26  H    8.712596   9.514962   9.973494   9.206645  10.603197
    27  H    7.211028   8.195038   8.616671   7.681221   9.088458
    28  H    8.804864   9.977644   9.952189   8.768874  10.355181
    29  H   10.078288  11.093333  11.154055  10.139067  11.714391
    30  H    9.352958  10.516687  10.879867   9.752807  11.205604
    31  C    7.514201   7.982958   8.013382   7.543779   8.996755
    32  C    7.880309   8.133285   7.779365   7.512952   8.994085
    33  C    7.680172   7.604936   7.340547   7.418904   8.710975
    34  H    8.095563   8.470451   8.727880   8.362428   9.717633
    35  H    6.450394   6.953552   7.136888   6.644739   8.036391
    36  H    8.969448   9.221191   8.792934   8.527034  10.037979
    37  H    7.519349   7.852040   7.217487   6.851944   8.422191
    38  H    6.653625   6.520711   6.367294   6.504110   7.715362
    39  H    8.265409   8.125782   8.118456   8.258994   9.461712
    40  H    8.201139   7.992177   7.448340   7.673382   8.948860
                   21         22         23         24         25
    21  C    0.000000
    22  C    1.529047   0.000000
    23  C    2.546286   1.528984   0.000000
    24  H    1.098611   2.155656   2.768905   0.000000
    25  H    1.098815   2.155330   2.768927   1.761001   0.000000
    26  H    2.152561   1.097550   2.161692   2.501265   3.058264
    27  H    2.152560   1.097550   2.161692   3.058419   2.500371
    28  H    2.803300   2.171275   1.094806   3.122904   2.576230
    29  H    2.803300   2.171275   1.094807   2.576301   3.123412
    30  H    3.500761   2.182504   1.094468   3.775302   3.775138
    31  C    1.527654   2.554280   3.916782   2.155750   2.155507
    32  C    2.554280   3.923128   5.100546   2.781358   2.781503
    33  C    3.916783   5.100547   6.427736   4.204569   4.204484
    34  H    2.155508   2.781504   4.204484   2.504587   3.061615
    35  H    2.155750   2.781359   4.204569   3.061809   2.504587
    36  H    2.776382   4.203070   5.211519   2.551147   3.099973
    37  H    2.776381   4.203070   5.211518   3.099347   2.551217
    38  H    4.228002   5.248682   6.635279   4.755801   4.415730
    39  H    4.228003   5.248682   6.635279   4.416157   4.755777
    40  H    4.730016   6.032716   7.274719   4.888347   4.888413
                   26         27         28         29         30
    26  H    0.000000
    27  H    1.760000   0.000000
    28  H    3.074391   2.517275   0.000000
    29  H    2.517276   3.074390   1.770000   0.000000
    30  H    2.508383   2.508384   1.771810   1.771809   0.000000
    31  C    2.776381   2.776381   4.228002   4.228002   4.730016
    32  C    4.203070   4.203070   5.248682   5.248682   6.032715
    33  C    5.211519   5.211519   6.635280   6.635280   7.274720
    34  H    2.551218   3.099973   4.755777   4.415731   4.888414
    35  H    3.099348   2.551148   4.416158   4.755802   4.888348
    36  H    4.387743   4.727567   5.422721   5.127446   6.192291
    37  H    4.727567   4.387743   5.127446   5.422721   6.192291
    38  H    5.422721   5.127446   6.782504   7.009655   7.408767
    39  H    5.127446   5.422721   7.009655   6.782504   7.408767
    40  H    6.192291   6.192291   7.408767   7.408767   8.180649
                   31         32         33         34         35
    31  C    0.000000
    32  C    1.529047   0.000000
    33  C    2.546287   1.528985   0.000000
    34  H    1.098815   2.155329   2.768927   0.000000
    35  H    1.098610   2.155655   2.768905   1.761000   0.000000
    36  H    2.152561   1.097551   2.161693   2.500372   3.058420
    37  H    2.152561   1.097550   2.161693   3.058264   2.501266
    38  H    2.803300   2.171275   1.094806   3.123411   2.576301
    39  H    2.803300   2.171275   1.094807   2.576229   3.122904
    40  H    3.500761   2.182504   1.094468   3.775137   3.775302
                   36         37         38         39         40
    36  H    0.000000
    37  H    1.760000   0.000000
    38  H    3.074391   2.517275   0.000000
    39  H    2.517275   3.074391   1.770001   0.000000
    40  H    2.508384   2.508383   1.771810   1.771810   0.000000
 Stoichiometry    C12H28
 Framework group  C1[X(C12H28)]
 Deg. of freedom   114
 Full point group                 C1      NOp   1
 Largest Abelian subgroup         C1      NOp   1
 Largest concise Abelian subgroup C1      NOp   1
                         Standard orientation:                         
 ---------------------------------------------------------------------
 Center     Atomic      Atomic             Coordinates (Angstroms)
 Number     Number       Type             X           Y           Z
 ---------------------------------------------------------------------
      1          6           0        2.788123   -0.092821    1.161830
      2          6           0        1.465226    0.657750    1.318577
      3          6           0        1.024392    0.780378    2.777489
      4          1           0        2.688343   -1.094592    1.601652
      5          1           0        3.566444    0.425699    1.738674
      6          1           0        0.689942    0.138746    0.740490
      7          1           0        1.568108    1.657782    0.878160
      8          1           0        1.777170    1.317464    3.363548
      9          1           0        0.894015   -0.210203    3.225095
     10          1           0        0.076527    1.320284    2.866443
     11          6           0        3.242026   -0.223559   -0.290963
     12          6           0        4.564923   -0.974130   -0.447711
     13          6           0        5.005757   -1.096758   -1.906622
     14          1           0        2.463705   -0.742079   -0.867808
     15          1           0        3.341806    0.778212   -0.730786
     16          1           0        4.462041   -1.974162   -0.007294
     17          1           0        5.340207   -0.455126    0.130377
     18          1           0        5.136134   -0.106177   -2.354229
     19          1           0        4.252979   -1.633844   -2.492681
     20          1           0        5.953622   -1.636664   -1.995576
     21          6           0       -3.483699   -0.410060   -0.637708
     22          6           0       -3.685083   -1.451169    0.463893
     23          6           0       -4.625099   -2.581654    0.044173
     24          1           0       -4.459274    0.008384   -0.920731
     25          1           0       -3.084820   -0.906427   -1.533202
     26          1           0       -4.082162   -0.952755    1.357497
     27          1           0       -2.708894   -1.867044    0.744461
     28          1           0       -4.230792   -3.104913   -0.832937
     29          1           0       -5.611862   -2.185428   -0.216418
     30          1           0       -4.754900   -3.314605    0.846542
     31          6           0       -2.546450    0.726440   -0.233159
     32          6           0       -2.345066    1.767548   -1.334759
     33          6           0       -1.405049    2.898034   -0.915040
     34          1           0       -2.945328    1.222808    0.662336
     35          1           0       -1.570875    0.307996    0.049865
     36          1           0       -3.321255    2.183425   -1.615328
     37          1           0       -1.947988    1.269135   -2.228364
     38          1           0       -0.418288    2.501808   -0.654449
     39          1           0       -1.799358    3.421293   -0.037929
     40          1           0       -1.275250    3.630985   -1.717408
 ---------------------------------------------------------------------
 Rotational constants (GHZ):           0.7557285           0.2337719           0.2243780
 Leave Link  202 at Wed May  5 19:44:55 2021, MaxMem=   524288000 cpu:               0.1 elap:               0.2
 (Enter /opt/gaussian/g16_legacy/l301.exe)
 Standard basis: 6-31G(d) (6D, 7F)
 Ernie: Thresh=  0.10000D-02 Tol=  0.10000D-05 Strict=F.
 There are   236 symmetry adapted cartesian basis functions of A   symmetry.
 There are   236 symmetry adapted basis functions of A   symmetry.
   236 basis functions,   448 primitive gaussians,   236 cartesian basis functions
    50 alpha electrons       50 beta electrons
       nuclear repulsion energy       694.1909042735 Hartrees.
 IExCor=    0 DFT=F Ex=HF Corr=None ExCW=0 ScaHFX=  1.000000
 ScaDFX=  1.000000  1.000000  1.000000  1.000000 ScalE2=  1.000000  1.000000
 IRadAn=      5 IRanWt=     -1 IRanGd=            0 ICorTp=0 IEmpDi=  4
 NAtoms=   40 NActive=   40 NUniq=   40 SFac= 1.00D+00 NAtFMM=   60 NAOKFM=F Big=F
 Integral buffers will be    131072 words long.
 Raffenetti 1 integral format.
 Two-electron integral symmetry is turned on.
 Leave Link  301 at Wed May  5 19:44:55 2021, MaxMem=   524288000 cpu:               0.1 elap:               0.1
 (Enter /opt/gaussian/g16_legacy/l302.exe)
 NPDir=0 NMtPBC=     1 NCelOv=     1 NCel=       1 NClECP=     1 NCelD=      1
         NCelK=      1 NCelE2=     1 NClLst=     1 CellRange=     0.0.
 One-electron integrals computed using PRISM.
 One-electron integral symmetry used in STVInt
 NBasis=   236 RedAO= T EigKep=  3.11D-03  NBF=   236
 NBsUse=   236 1.00D-06 EigRej= -1.00D+00 NBFU=   236
 Leave Link  302 at Wed May  5 19:44:56 2021, MaxMem=   524288000 cpu:               0.4 elap:               0.4
 (Enter /opt/gaussian/g16_legacy/l303.exe)
 DipDrv:  MaxL=1.
 Leave Link  303 at Wed May  5 19:44:56 2021, MaxMem=   524288000 cpu:               0.0 elap:               0.1
 (Enter /opt/gaussian/g16_legacy/l401.exe)
 ExpMin= 1.61D-01 ExpMax= 3.05D+03 ExpMxC= 4.57D+02 IAcc=3 IRadAn=         5 AccDes= 0.00D+00
 Harris functional with IExCor=  205 and IRadAn=       5 diagonalized for initial guess.
 HarFok:  IExCor=  205 AccDes= 0.00D+00 IRadAn=         5 IDoV= 1 UseB2=F ITyADJ=14
 ICtDFT=  3500011 ScaDFX=  1.000000  1.000000  1.000000  1.000000
 FoFCou: FMM=F IPFlag=           0 FMFlag=      100000 FMFlg1=           0
         NFxFlg=           0 DoJE=T BraDBF=F KetDBF=T FulRan=T
         wScrn=  0.000000 ICntrl=       500 IOpCl=  0 I1Cent=   200000004 NGrid=           0
         NMat0=    1 NMatS0=      1 NMatT0=    0 NMatD0=    1 NMtDS0=    0 NMtDT0=    0
 Petite list used in FoFCou.
 Harris En= -472.099242199114    
 JPrj=0 DoOrth=F DoCkMO=F.
 Leave Link  401 at Wed May  5 19:45:01 2021, MaxMem=   524288000 cpu:               9.6 elap:               4.9
 (Enter /opt/gaussian/g16_legacy/l502.exe)
 Keep R1 ints in memory in canonical form, NReq=397720540.
 FoFCou: FMM=F IPFlag=           0 FMFlag=           0 FMFlg1=           0
         NFxFlg=           0 DoJE=F BraDBF=F KetDBF=F FulRan=T
         wScrn=  0.000000 ICntrl=       600 IOpCl=  0 I1Cent=           0 NGrid=           0
         NMat0=    1 NMatS0=  27966 NMatT0=    0 NMatD0=    1 NMtDS0=    0 NMtDT0=    0
 Symmetry not used in FoFCou.
 Two-electron integral symmetry not used.
 Closed shell SCF:
 Using DIIS extrapolation, IDIIS=  1040.
 NGot=   524288000 LenX=   133109463 LenY=   133053326
 Requested convergence on RMS density matrix=1.00D-08 within 128 cycles.
 Requested convergence on MAX density matrix=1.00D-06.
 Requested convergence on             energy=1.00D-06.
 No special actions if energy rises.

 Cycle   1  Pass 1  IDiag  1:
 E= -469.871320182523    
 DIIS: error= 5.54D-02 at cycle   1 NSaved=   1.
 NSaved= 1 IEnMin= 1 EnMin= -469.871320182523     IErMin= 1 ErrMin= 5.54D-02
 ErrMax= 5.54D-02  0.00D+00 EMaxC= 1.00D-01 BMatC= 1.07D+00 BMatP= 1.07D+00
 IDIUse=3 WtCom= 4.46D-01 WtEn= 5.54D-01
 Coeff-Com:  0.100D+01
 Coeff-En:   0.100D+01
 Coeff:      0.100D+01
 Gap=     0.622 Goal=   None    Shift=    0.000
 GapD=    0.622 DampG=2.000 DampE=0.500 DampFc=1.0000 IDamp=-1.
 RMSDP=4.72D-03 MaxDP=1.19D-01              OVMax= 1.35D-01

 Cycle   2  Pass 1  IDiag  1:
 E= -470.595901390162     Delta-E=       -0.724581207639 Rises=F Damp=F
 DIIS: error= 2.19D-02 at cycle   2 NSaved=   2.
 NSaved= 2 IEnMin= 2 EnMin= -470.595901390162     IErMin= 2 ErrMin= 2.19D-02
 ErrMax= 2.19D-02  0.00D+00 EMaxC= 1.00D-01 BMatC= 1.46D-01 BMatP= 1.07D+00
 IDIUse=3 WtCom= 7.81D-01 WtEn= 2.19D-01
 Coeff-Com:  0.219D+00 0.781D+00
 Coeff-En:   0.000D+00 0.100D+01
 Coeff:      0.171D+00 0.829D+00
 Gap=     0.676 Goal=   None    Shift=    0.000
 RMSDP=1.72D-03 MaxDP=3.35D-02 DE=-7.25D-01 OVMax= 4.71D-02

 Cycle   3  Pass 1  IDiag  1:
 E= -470.727115070752     Delta-E=       -0.131213680590 Rises=F Damp=F
 DIIS: error= 4.59D-03 at cycle   3 NSaved=   3.
 NSaved= 3 IEnMin= 3 EnMin= -470.727115070752     IErMin= 3 ErrMin= 4.59D-03
 ErrMax= 4.59D-03  0.00D+00 EMaxC= 1.00D-01 BMatC= 5.11D-03 BMatP= 1.46D-01
 IDIUse=3 WtCom= 9.54D-01 WtEn= 4.59D-02
 Coeff-Com: -0.263D-01 0.110D+00 0.917D+00
 Coeff-En:   0.000D+00 0.000D+00 0.100D+01
 Coeff:     -0.251D-01 0.105D+00 0.920D+00
 Gap=     0.647 Goal=   None    Shift=    0.000
 RMSDP=2.85D-04 MaxDP=6.72D-03 DE=-1.31D-01 OVMax= 9.74D-03

 Cycle   4  Pass 1  IDiag  1:
 E= -470.732888639435     Delta-E=       -0.005773568683 Rises=F Damp=F
 DIIS: error= 4.86D-04 at cycle   4 NSaved=   4.
 NSaved= 4 IEnMin= 4 EnMin= -470.732888639435     IErMin= 4 ErrMin= 4.86D-04
 ErrMax= 4.86D-04  0.00D+00 EMaxC= 1.00D-01 BMatC= 6.36D-05 BMatP= 5.11D-03
 IDIUse=3 WtCom= 9.95D-01 WtEn= 4.86D-03
 Coeff-Com:  0.148D-02-0.237D-01-0.953D-01 0.112D+01
 Coeff-En:   0.000D+00 0.000D+00 0.000D+00 0.100D+01
 Coeff:      0.147D-02-0.235D-01-0.949D-01 0.112D+01
 Gap=     0.648 Goal=   None    Shift=    0.000
 RMSDP=6.11D-05 MaxDP=1.18D-03 DE=-5.77D-03 OVMax= 1.80D-03

 Cycle   5  Pass 1  IDiag  1:
 E= -470.732995355033     Delta-E=       -0.000106715597 Rises=F Damp=F
 DIIS: error= 1.51D-04 at cycle   5 NSaved=   5.
 NSaved= 5 IEnMin= 5 EnMin= -470.732995355033     IErMin= 5 ErrMin= 1.51D-04
 ErrMax= 1.51D-04  0.00D+00 EMaxC= 1.00D-01 BMatC= 6.39D-06 BMatP= 6.36D-05
 IDIUse=3 WtCom= 9.98D-01 WtEn= 1.51D-03
 Coeff-Com:  0.219D-02-0.127D-01-0.828D-01 0.191D+00 0.902D+00
 Coeff-En:   0.000D+00 0.000D+00 0.000D+00 0.000D+00 0.100D+01
 Coeff:      0.218D-02-0.127D-01-0.826D-01 0.191D+00 0.903D+00
 Gap=     0.648 Goal=   None    Shift=    0.000
 RMSDP=1.57D-05 MaxDP=3.59D-04 DE=-1.07D-04 OVMax= 4.84D-04

 Cycle   6  Pass 1  IDiag  1:
 E= -470.733004270389     Delta-E=       -0.000008915357 Rises=F Damp=F
 DIIS: error= 2.77D-05 at cycle   6 NSaved=   6.
 NSaved= 6 IEnMin= 6 EnMin= -470.733004270389     IErMin= 6 ErrMin= 2.77D-05
 ErrMax= 2.77D-05  0.00D+00 EMaxC= 1.00D-01 BMatC= 1.41D-07 BMatP= 6.39D-06
 IDIUse=1 WtCom= 1.00D+00 WtEn= 0.00D+00
 Coeff-Com:  0.128D-03-0.235D-03-0.288D-02-0.328D-01 0.624D-01 0.973D+00
 Coeff:      0.128D-03-0.235D-03-0.288D-02-0.328D-01 0.624D-01 0.973D+00
 Gap=     0.648 Goal=   None    Shift=    0.000
 RMSDP=3.35D-06 MaxDP=6.47D-05 DE=-8.92D-06 OVMax= 9.90D-05

 Cycle   7  Pass 1  IDiag  1:
 E= -470.733004508956     Delta-E=       -0.000000238567 Rises=F Damp=F
 DIIS: error= 3.98D-06 at cycle   7 NSaved=   7.
 NSaved= 7 IEnMin= 7 EnMin= -470.733004508956     IErMin= 7 ErrMin= 3.98D-06
 ErrMax= 3.98D-06  0.00D+00 EMaxC= 1.00D-01 BMatC= 5.19D-09 BMatP= 1.41D-07
 IDIUse=1 WtCom= 1.00D+00 WtEn= 0.00D+00
 Coeff-Com: -0.546D-04 0.352D-03 0.237D-02-0.687D-02-0.244D-01 0.151D-01
 Coeff-Com:  0.101D+01
 Coeff:     -0.546D-04 0.352D-03 0.237D-02-0.687D-02-0.244D-01 0.151D-01
 Coeff:      0.101D+01
 Gap=     0.648 Goal=   None    Shift=    0.000
 RMSDP=7.16D-07 MaxDP=1.23D-05 DE=-2.39D-07 OVMax= 1.98D-05

 Cycle   8  Pass 1  IDiag  1:
 E= -470.733004518162     Delta-E=       -0.000000009205 Rises=F Damp=F
 DIIS: error= 1.86D-06 at cycle   8 NSaved=   8.
 NSaved= 8 IEnMin= 8 EnMin= -470.733004518162     IErMin= 8 ErrMin= 1.86D-06
 ErrMax= 1.86D-06  0.00D+00 EMaxC= 1.00D-01 BMatC= 5.89D-10 BMatP= 5.19D-09
 IDIUse=1 WtCom= 1.00D+00 WtEn= 0.00D+00
 Coeff-Com: -0.155D-04 0.626D-04 0.524D-03 0.134D-02-0.727D-02-0.670D-01
 Coeff-Com:  0.148D+00 0.924D+00
 Coeff:     -0.155D-04 0.626D-04 0.524D-03 0.134D-02-0.727D-02-0.670D-01
 Coeff:      0.148D+00 0.924D+00
 Gap=     0.648 Goal=   None    Shift=    0.000
 RMSDP=1.96D-07 MaxDP=3.80D-06 DE=-9.21D-09 OVMax= 7.40D-06

 Cycle   9  Pass 1  IDiag  1:
 E= -470.733004519141     Delta-E=       -0.000000000980 Rises=F Damp=F
 DIIS: error= 3.99D-07 at cycle   9 NSaved=   9.
 NSaved= 9 IEnMin= 9 EnMin= -470.733004519141     IErMin= 9 ErrMin= 3.99D-07
 ErrMax= 3.99D-07  0.00D+00 EMaxC= 1.00D-01 BMatC= 3.68D-11 BMatP= 5.89D-10
 IDIUse=1 WtCom= 1.00D+00 WtEn= 0.00D+00
 Coeff-Com:  0.530D-05-0.326D-04-0.226D-03 0.440D-03 0.266D-02 0.397D-02
 Coeff-Com: -0.923D-01-0.720D-01 0.116D+01
 Coeff:      0.530D-05-0.326D-04-0.226D-03 0.440D-03 0.266D-02 0.397D-02
 Coeff:     -0.923D-01-0.720D-01 0.116D+01
 Gap=     0.648 Goal=   None    Shift=    0.000
 RMSDP=7.17D-08 MaxDP=1.29D-06 DE=-9.80D-10 OVMax= 2.16D-06

 Cycle  10  Pass 1  IDiag  1:
 E= -470.733004519223     Delta-E=       -0.000000000082 Rises=F Damp=F
 DIIS: error= 7.12D-08 at cycle  10 NSaved=  10.
 NSaved=10 IEnMin=10 EnMin= -470.733004519223     IErMin=10 ErrMin= 7.12D-08
 ErrMax= 7.12D-08  0.00D+00 EMaxC= 1.00D-01 BMatC= 1.40D-12 BMatP= 3.68D-11
 IDIUse=1 WtCom= 1.00D+00 WtEn= 0.00D+00
 Coeff-Com:  0.242D-06 0.137D-07-0.571D-05-0.131D-03 0.145D-03 0.358D-02
 Coeff-Com:  0.123D-02-0.485D-01-0.114D+00 0.116D+01
 Coeff:      0.242D-06 0.137D-07-0.571D-05-0.131D-03 0.145D-03 0.358D-02
 Coeff:      0.123D-02-0.485D-01-0.114D+00 0.116D+01
 Gap=     0.648 Goal=   None    Shift=    0.000
 RMSDP=1.40D-08 MaxDP=2.91D-07 DE=-8.16D-11 OVMax= 4.99D-07

 Cycle  11  Pass 1  IDiag  1:
 E= -470.733004519227     Delta-E=       -0.000000000005 Rises=F Damp=F
 DIIS: error= 9.40D-09 at cycle  11 NSaved=  11.
 NSaved=11 IEnMin=11 EnMin= -470.733004519227     IErMin=11 ErrMin= 9.40D-09
 ErrMax= 9.40D-09  0.00D+00 EMaxC= 1.00D-01 BMatC= 3.57D-14 BMatP= 1.40D-12
 IDIUse=1 WtCom= 1.00D+00 WtEn= 0.00D+00
 Coeff-Com: -0.171D-06 0.878D-06 0.659D-05 0.157D-04-0.993D-04-0.808D-03
 Coeff-Com:  0.206D-02 0.113D-01-0.296D-02-0.249D+00 0.124D+01
 Coeff:     -0.171D-06 0.878D-06 0.659D-05 0.157D-04-0.993D-04-0.808D-03
 Coeff:      0.206D-02 0.113D-01-0.296D-02-0.249D+00 0.124D+01
 Gap=     0.648 Goal=   None    Shift=    0.000
 RMSDP=1.91D-09 MaxDP=4.98D-08 DE=-4.55D-12 OVMax= 5.86D-08

 SCF Done:  E(RHF) =  -470.733004519     A.U. after   11 cycles
            NFock= 11  Conv=0.19D-08     -V/T= 2.0011
 KE= 4.702285452653D+02 PE=-2.481516197669D+03 EE= 8.463637436110D+02
 Leave Link  502 at Wed May  5 19:45:15 2021, MaxMem=   524288000 cpu:              20.4 elap:              14.3
 (Enter /opt/gaussian/g16_legacy/l801.exe)
 ExpMin= 1.61D-01 ExpMax= 3.05D+03 ExpMxC= 4.57D+02 IAcc=3 IRadAn=         5 AccDes= 0.00D+00
 HarFok:  IExCor=  205 AccDes= 0.00D+00 IRadAn=         5 IDoV=-2 UseB2=F ITyADJ=14
 ICtDFT= 12500011 ScaDFX=  1.000000  1.000000  1.000000  1.000000
 Largest valence mixing into a core orbital is  1.98D-04
 Largest core mixing into a valence orbital is  3.29D-05
 Range of M.O.s used for correlation:    13   236
 NBasis=   236 NAE=    50 NBE=    50 NFC=    12 NFV=     0
 NROrb=    224 NOA=    38 NOB=    38 NVA=   186 NVB=   186
 Leave Link  801 at Wed May  5 19:45:16 2021, MaxMem=   524288000 cpu:               1.2 elap:               0.6
 (Enter /opt/gaussian/g16_legacy/l906.exe)
 FulOut=F Deriv=F AODrv=F NAtomX=    40
   MMem=         154  MDisk=          38 MDiskD=          38
  W3Min=     1668048 MinDsk=     1838182 NBas6D=         236
 NBas2D=       28290    NTT=       27966    LW2=     2000000
    MDV=   523939660 MDiskM=       30716 NBas2p=       20180
 Fully direct method using O(OVN) memory.
 IMap=   1   2   3   4   5   6   7   8   9  10  11  12  13  14  15  16  17  18  19  20
 IMap=  21  22  23  24  25  26  27  28  29  30  31  32  33  34  35  36  37  38
 JobTyp=1 Pass  1:  I=   1 to  38 NPSUse=  2 ParTrn=T ParDer=T DoDerP=F.
 Spin components of T(2) and E(2):
     alpha-alpha T2 =       0.6288231261D-01 E2=     -0.1844081852D+00
     alpha-beta  T2 =       0.4044598890D+00 E2=     -0.1214828766D+01
     beta-beta   T2 =       0.6288231261D-01 E2=     -0.1844081852D+00
 The integrals were generated   1 times.
 ANorm=    0.1237022439D+01
 E2 =    -0.1583645136D+01 EUMP2 =    -0.47231664965530D+03
 Leave Link  906 at Wed May  5 19:45:59 2021, MaxMem=   524288000 cpu:              85.6 elap:              43.1
 (Enter /opt/gaussian/g16_legacy/l601.exe)
 Copying SCF densities to generalized density rwf, IOpCl= 0 IROHF=0.

 **********************************************************************

            Population analysis using the SCF density.

 **********************************************************************

 Orbital symmetries:
       Occupied  (A) (A) (A) (A) (A) (A) (A) (A) (A) (A) (A) (A)
                 (A) (A) (A) (A) (A) (A) (A) (A) (A) (A) (A) (A)
                 (A) (A) (A) (A) (A) (A) (A) (A) (A) (A) (A) (A)
                 (A) (A) (A) (A) (A) (A) (A) (A) (A) (A) (A) (A)
                 (A) (A)
       Virtual   (A) (A) (A) (A) (A) (A) (A) (A) (A) (A) (A) (A)
                 (A) (A) (A) (A) (A) (A) (A) (A) (A) (A) (A) (A)
                 (A) (A) (A) (A) (A) (A) (A) (A) (A) (A) (A) (A)
                 (A) (A) (A) (A) (A) (A) (A) (A) (A) (A) (A) (A)
                 (A) (A) (A) (A) (A) (A) (A) (A) (A) (A) (A) (A)
                 (A) (A) (A) (A) (A) (A) (A) (A) (A) (A) (A) (A)
                 (A) (A) (A) (A) (A) (A) (A) (A) (A) (A) (A) (A)
                 (A) (A) (A) (A) (A) (A) (A) (A) (A) (A) (A) (A)
                 (A) (A) (A) (A) (A) (A) (A) (A) (A) (A) (A) (A)
                 (A) (A) (A) (A) (A) (A) (A) (A) (A) (A) (A) (A)
                 (A) (A) (A) (A) (A) (A) (A) (A) (A) (A) (A) (A)
                 (A) (A) (A) (A) (A) (A) (A) (A) (A) (A) (A) (A)
                 (A) (A) (A) (A) (A) (A) (A) (A) (A) (A) (A) (A)
                 (A) (A) (A) (A) (A) (A) (A) (A) (A) (A) (A) (A)
                 (A) (A) (A) (A) (A) (A) (A) (A) (A) (A) (A) (A)
                 (A) (A) (A) (A) (A) (A)
 The electronic state is 1-A.
 Alpha  occ. eigenvalues --  -11.21636 -11.21634 -11.21607 -11.21565 -11.21446
 Alpha  occ. eigenvalues --  -11.21385 -11.21385 -11.21316 -11.21098 -11.21077
 Alpha  occ. eigenvalues --  -11.21075 -11.20989  -1.08480  -1.08406  -1.03576
 Alpha  occ. eigenvalues --   -1.03494  -0.96005  -0.95955  -0.87023  -0.86972
 Alpha  occ. eigenvalues --   -0.79705  -0.79520  -0.78376  -0.78137  -0.65167
 Alpha  occ. eigenvalues --   -0.64996  -0.60982  -0.60906  -0.59437  -0.59260
 Alpha  occ. eigenvalues --   -0.57620  -0.57561  -0.55334  -0.55209  -0.52699
 Alpha  occ. eigenvalues --   -0.52647  -0.52440  -0.52377  -0.50021  -0.49844
 Alpha  occ. eigenvalues --   -0.48137  -0.47784  -0.46737  -0.46604  -0.46064
 Alpha  occ. eigenvalues --   -0.45760  -0.45724  -0.45266  -0.43809  -0.43762
 Alpha virt. eigenvalues --    0.21036   0.23201   0.23570   0.24769   0.25513
 Alpha virt. eigenvalues --    0.25988   0.26951   0.27872   0.28092   0.29230
 Alpha virt. eigenvalues --    0.30584   0.31323   0.31522   0.31861   0.32128
 Alpha virt. eigenvalues --    0.32609   0.33152   0.33697   0.34098   0.34369
 Alpha virt. eigenvalues --    0.34414   0.35000   0.35592   0.35926   0.36399
 Alpha virt. eigenvalues --    0.36445   0.38573   0.39110   0.39873   0.40484
 Alpha virt. eigenvalues --    0.41069   0.44694   0.45236   0.45570   0.45968
 Alpha virt. eigenvalues --    0.46431   0.48027   0.49887   0.68256   0.69349
 Alpha virt. eigenvalues --    0.69607   0.70082   0.71705   0.73014   0.75187
 Alpha virt. eigenvalues --    0.75298   0.76478   0.76501   0.77946   0.78301
 Alpha virt. eigenvalues --    0.80298   0.83007   0.83900   0.84333   0.86829
 Alpha virt. eigenvalues --    0.87104   0.87878   0.88334   0.95801   0.96142
 Alpha virt. eigenvalues --    0.96301   0.96966   0.98461   0.98707   1.01564
 Alpha virt. eigenvalues --    1.01827   1.05456   1.05837   1.07592   1.07682
 Alpha virt. eigenvalues --    1.10770   1.11039   1.11784   1.12790   1.15335
 Alpha virt. eigenvalues --    1.16298   1.16652   1.17024   1.17601   1.17954
 Alpha virt. eigenvalues --    1.18842   1.18933   1.19518   1.19960   1.20479
 Alpha virt. eigenvalues --    1.20720   1.20979   1.21034   1.21316   1.21667
 Alpha virt. eigenvalues --    1.21721   1.22024   1.22956   1.23558   1.23940
 Alpha virt. eigenvalues --    1.24344   1.25130   1.26029   1.26691   1.27524
 Alpha virt. eigenvalues --    1.35263   1.38541   1.40299   1.46249   1.55914
 Alpha virt. eigenvalues --    1.56829   1.65943   1.66939   1.67282   1.67337
 Alpha virt. eigenvalues --    1.71127   1.72204   1.72803   1.73073   1.79209
 Alpha virt. eigenvalues --    1.80522   1.81136   1.81336   1.92765   1.93168
 Alpha virt. eigenvalues --    2.05225   2.05485   2.12968   2.13519   2.14605
 Alpha virt. eigenvalues --    2.15630   2.17833   2.17905   2.22404   2.22512
 Alpha virt. eigenvalues --    2.25594   2.25770   2.25881   2.26306   2.27695
 Alpha virt. eigenvalues --    2.27971   2.32754   2.33885   2.33967   2.34240
 Alpha virt. eigenvalues --    2.36056   2.36584   2.39427   2.39770   2.43053
 Alpha virt. eigenvalues --    2.43101   2.56720   2.56797   2.56836   2.56940
 Alpha virt. eigenvalues --    2.59589   2.59660   2.66828   2.66876   2.67690
 Alpha virt. eigenvalues --    2.67727   2.67810   2.67881   2.76862   2.77144
 Alpha virt. eigenvalues --    2.77524   2.78035   2.79934   2.80024   2.91405
 Alpha virt. eigenvalues --    2.92183   2.94947   2.95722   2.98483   2.98810
 Alpha virt. eigenvalues --    3.13758   3.13990   3.18533   3.18919   4.55037
 Alpha virt. eigenvalues --    4.56866   4.62231   4.64379   4.71845   4.72926
 Alpha virt. eigenvalues --    4.79911   4.80879   4.87889   4.89215   4.99771
 Alpha virt. eigenvalues --    5.01356
          Condensed to atoms (all electrons):
               1          2          3          4          5          6
     1  C    5.086666   0.349451  -0.056942   0.395702   0.395647  -0.043928
     2  C    0.349451   5.071326   0.340304  -0.041343  -0.041293   0.398857
     3  C   -0.056942   0.340304   5.097589  -0.002888  -0.002897  -0.040104
     4  H    0.395702  -0.041343  -0.002888   0.566765  -0.031398  -0.003059
     5  H    0.395647  -0.041293  -0.002897  -0.031398   0.566641   0.004516
     6  H   -0.043928   0.398857  -0.040104  -0.003059   0.004516   0.560350
     7  H   -0.043591   0.399912  -0.039373   0.004516  -0.003087  -0.032808
     8  H   -0.003824  -0.038739   0.391201   0.000161   0.002616   0.004266
     9  H   -0.003856  -0.038786   0.391271   0.002631   0.000164  -0.002967
    10  H    0.004401  -0.035696   0.393952  -0.000060  -0.000063  -0.002728
    11  C    0.355649  -0.052183   0.004065  -0.041652  -0.041641  -0.003082
    12  C   -0.051885   0.003938  -0.000084  -0.003261  -0.003284  -0.000063
    13  C    0.004071  -0.000085   0.000001  -0.000053  -0.000053  -0.000001
    14  H   -0.041889  -0.003150  -0.000054  -0.002798   0.004480   0.002411
    15  H   -0.041779  -0.003101  -0.000054   0.004466  -0.002791   0.000232
    16  H   -0.003190  -0.000062  -0.000001   0.002402   0.000238   0.000017
    17  H   -0.003204  -0.000061  -0.000000   0.000237   0.002408  -0.000003
    18  H   -0.000070  -0.000001  -0.000000  -0.000001   0.000013   0.000000
    19  H   -0.000070  -0.000000  -0.000000   0.000013  -0.000001  -0.000002
    20  H   -0.000087   0.000001  -0.000000   0.000001   0.000001   0.000000
    21  C   -0.000000   0.000007   0.000001   0.000000   0.000000   0.000004
    22  C    0.000000  -0.000002   0.000000   0.000000  -0.000000   0.000001
    23  C   -0.000000   0.000000  -0.000000   0.000000   0.000000  -0.000000
    24  H    0.000000  -0.000000   0.000000   0.000000  -0.000000  -0.000000
    25  H    0.000000   0.000000  -0.000000  -0.000000   0.000000   0.000002
    26  H    0.000000   0.000000  -0.000000  -0.000000   0.000000  -0.000000
    27  H   -0.000000  -0.000002   0.000001  -0.000000   0.000000   0.000040
    28  H    0.000000  -0.000000  -0.000000  -0.000000  -0.000000  -0.000000
    29  H    0.000000  -0.000000   0.000000   0.000000  -0.000000   0.000000
    30  H    0.000000  -0.000000   0.000000   0.000000  -0.000000  -0.000000
    31  C    0.000009  -0.000546   0.000010   0.000000  -0.000000  -0.000380
    32  C   -0.000001   0.000040  -0.000001   0.000000   0.000000   0.000043
    33  C    0.000010  -0.000355   0.000015  -0.000000  -0.000000  -0.000110
    34  H    0.000000   0.000020  -0.000016  -0.000000   0.000000   0.000017
    35  H    0.000015  -0.000376   0.000065   0.000000  -0.000000   0.001650
    36  H    0.000000  -0.000001  -0.000000  -0.000000  -0.000000  -0.000001
    37  H    0.000000   0.000001  -0.000000  -0.000000   0.000000   0.000011
    38  H   -0.000011   0.000294  -0.000054   0.000001   0.000001   0.000155
    39  H    0.000000   0.000013  -0.000008   0.000000   0.000000   0.000001
    40  H   -0.000000   0.000003   0.000000   0.000000   0.000000   0.000001
               7          8          9         10         11         12
     1  C   -0.043591  -0.003824  -0.003856   0.004401   0.355649  -0.051885
     2  C    0.399912  -0.038739  -0.038786  -0.035696  -0.052183   0.003938
     3  C   -0.039373   0.391201   0.391271   0.393952   0.004065  -0.000084
     4  H    0.004516   0.000161   0.002631  -0.000060  -0.041652  -0.003261
     5  H   -0.003087   0.002616   0.000164  -0.000063  -0.041641  -0.003284
     6  H   -0.032808   0.004266  -0.002967  -0.002728  -0.003082  -0.000063
     7  H    0.560951  -0.002962   0.004199  -0.002513  -0.003176  -0.000058
     8  H   -0.002962   0.548671  -0.029148  -0.027419  -0.000069  -0.000001
     9  H    0.004199  -0.029148   0.548946  -0.027393  -0.000069  -0.000001
    10  H   -0.002513  -0.027419  -0.027393   0.535221  -0.000087   0.000001
    11  C   -0.003176  -0.000069  -0.000069  -0.000087   5.084232   0.352348
    12  C   -0.000058  -0.000001  -0.000001   0.000001   0.352348   5.060260
    13  C   -0.000001  -0.000000  -0.000000  -0.000000  -0.057346   0.340615
    14  H    0.000217  -0.000001   0.000014   0.000001   0.395926  -0.041876
    15  H    0.002327   0.000013  -0.000001   0.000001   0.396095  -0.041749
    16  H   -0.000003   0.000000  -0.000002   0.000000  -0.043673   0.399179
    17  H    0.000016  -0.000002   0.000000   0.000000  -0.043662   0.399174
    18  H   -0.000002   0.000000  -0.000000  -0.000000  -0.003802  -0.038886
    19  H    0.000000  -0.000000   0.000000  -0.000000  -0.003807  -0.038907
    20  H    0.000000  -0.000000  -0.000000   0.000000   0.004401  -0.035834
    21  C   -0.000000  -0.000000  -0.000000  -0.000003   0.000000  -0.000000
    22  C    0.000000   0.000000   0.000000   0.000000   0.000000   0.000000
    23  C   -0.000000  -0.000000  -0.000000  -0.000000  -0.000000  -0.000000
    24  H    0.000000   0.000000   0.000000   0.000000  -0.000000   0.000000
    25  H   -0.000000   0.000000  -0.000000   0.000000   0.000000   0.000000
    26  H   -0.000000   0.000000  -0.000000   0.000001  -0.000000   0.000000
    27  H   -0.000000   0.000000   0.000002   0.000001  -0.000000   0.000000
    28  H   -0.000000   0.000000  -0.000000   0.000000  -0.000000   0.000000
    29  H    0.000000   0.000000   0.000000   0.000000  -0.000000   0.000000
    30  H    0.000000  -0.000000  -0.000000   0.000000  -0.000000   0.000000
    31  C    0.000019  -0.000000  -0.000001   0.000106  -0.000000   0.000000
    32  C   -0.000010  -0.000000   0.000000  -0.000014  -0.000000  -0.000000
    33  C   -0.000214  -0.000001  -0.000001   0.000051  -0.000001   0.000000
    34  H   -0.000001   0.000000  -0.000001   0.000093  -0.000000   0.000000
    35  H    0.000016  -0.000000   0.000008   0.000120  -0.000002   0.000000
    36  H    0.000000   0.000000  -0.000000   0.000000   0.000000   0.000000
    37  H    0.000000   0.000000   0.000000   0.000000   0.000000  -0.000000
    38  H    0.001081   0.000002   0.000001   0.000041   0.000012  -0.000000
    39  H    0.000019   0.000000   0.000000   0.000030  -0.000000  -0.000000
    40  H    0.000004   0.000000   0.000000  -0.000001   0.000000  -0.000000
              13         14         15         16         17         18
     1  C    0.004071  -0.041889  -0.041779  -0.003190  -0.003204  -0.000070
     2  C   -0.000085  -0.003150  -0.003101  -0.000062  -0.000061  -0.000001
     3  C    0.000001  -0.000054  -0.000054  -0.000001  -0.000000  -0.000000
     4  H   -0.000053  -0.002798   0.004466   0.002402   0.000237  -0.000001
     5  H   -0.000053   0.004480  -0.002791   0.000238   0.002408   0.000013
     6  H   -0.000001   0.002411   0.000232   0.000017  -0.000003   0.000000
     7  H   -0.000001   0.000217   0.002327  -0.000003   0.000016  -0.000002
     8  H   -0.000000  -0.000001   0.000013   0.000000  -0.000002   0.000000
     9  H   -0.000000   0.000014  -0.000001  -0.000002   0.000000  -0.000000
    10  H   -0.000000   0.000001   0.000001   0.000000   0.000000  -0.000000
    11  C   -0.057346   0.395926   0.396095  -0.043673  -0.043662  -0.003802
    12  C    0.340615  -0.041876  -0.041749   0.399179   0.399174  -0.038886
    13  C    5.097414  -0.002861  -0.002859  -0.039893  -0.039875   0.391288
    14  H   -0.002861   0.567962  -0.031548  -0.002990   0.004577   0.000158
    15  H   -0.002859  -0.031548   0.566678   0.004564  -0.002971   0.002622
    16  H   -0.039893  -0.002990   0.004564   0.564220  -0.031629   0.004218
    17  H   -0.039875   0.004577  -0.002971  -0.031629   0.564029  -0.002891
    18  H    0.391288   0.000158   0.002622   0.004218  -0.002891   0.548659
    19  H    0.391250   0.002631   0.000159  -0.002892   0.004219  -0.029147
    20  H    0.394132  -0.000059  -0.000059  -0.002505  -0.002504  -0.027471
    21  C    0.000000  -0.000000   0.000000   0.000000   0.000000   0.000000
    22  C   -0.000000  -0.000000  -0.000000  -0.000000   0.000000  -0.000000
    23  C    0.000000   0.000000   0.000000   0.000000  -0.000000  -0.000000
    24  H   -0.000000   0.000000  -0.000000  -0.000000  -0.000000  -0.000000
    25  H   -0.000000   0.000000  -0.000000  -0.000000   0.000000   0.000000
    26  H   -0.000000   0.000000   0.000000  -0.000000  -0.000000   0.000000
    27  H   -0.000000   0.000000  -0.000000   0.000000   0.000000   0.000000
    28  H   -0.000000   0.000000   0.000000  -0.000000  -0.000000  -0.000000
    29  H   -0.000000  -0.000000  -0.000000  -0.000000   0.000000  -0.000000
    30  H    0.000000  -0.000000   0.000000   0.000000  -0.000000  -0.000000
    31  C   -0.000000  -0.000000  -0.000000  -0.000000  -0.000000  -0.000000
    32  C    0.000000   0.000000  -0.000000   0.000000   0.000000   0.000000
    33  C   -0.000000  -0.000001  -0.000002  -0.000000  -0.000000  -0.000000
    34  H   -0.000000  -0.000000  -0.000000  -0.000000   0.000000   0.000000
    35  H    0.000000   0.000003   0.000000  -0.000000   0.000000  -0.000000
    36  H   -0.000000   0.000000   0.000000  -0.000000  -0.000000  -0.000000
    37  H   -0.000000   0.000000  -0.000000   0.000000   0.000000   0.000000
    38  H    0.000000   0.000008   0.000022   0.000000   0.000000   0.000000
    39  H   -0.000000   0.000000  -0.000000   0.000000   0.000000   0.000000
    40  H    0.000000   0.000000   0.000000   0.000000   0.000000  -0.000000
              19         20         21         22         23         24
     1  C   -0.000070  -0.000087  -0.000000   0.000000  -0.000000   0.000000
     2  C   -0.000000   0.000001   0.000007  -0.000002   0.000000  -0.000000
     3  C   -0.000000  -0.000000   0.000001   0.000000  -0.000000   0.000000
     4  H    0.000013   0.000001   0.000000   0.000000   0.000000   0.000000
     5  H   -0.000001   0.000001   0.000000  -0.000000   0.000000  -0.000000
     6  H   -0.000002   0.000000   0.000004   0.000001  -0.000000  -0.000000
     7  H    0.000000   0.000000  -0.000000   0.000000  -0.000000   0.000000
     8  H   -0.000000  -0.000000  -0.000000   0.000000  -0.000000   0.000000
     9  H    0.000000  -0.000000  -0.000000   0.000000  -0.000000   0.000000
    10  H   -0.000000   0.000000  -0.000003   0.000000  -0.000000   0.000000
    11  C   -0.003807   0.004401   0.000000   0.000000  -0.000000  -0.000000
    12  C   -0.038907  -0.035834  -0.000000   0.000000  -0.000000   0.000000
    13  C    0.391250   0.394132   0.000000  -0.000000   0.000000  -0.000000
    14  H    0.002631  -0.000059  -0.000000  -0.000000   0.000000   0.000000
    15  H    0.000159  -0.000059   0.000000  -0.000000   0.000000  -0.000000
    16  H   -0.002892  -0.002505   0.000000  -0.000000   0.000000  -0.000000
    17  H    0.004219  -0.002504   0.000000   0.000000  -0.000000  -0.000000
    18  H   -0.029147  -0.027471   0.000000  -0.000000  -0.000000  -0.000000
    19  H    0.548950  -0.027485   0.000000   0.000000   0.000000   0.000000
    20  H   -0.027485   0.537072  -0.000000   0.000000  -0.000000  -0.000000
    21  C    0.000000  -0.000000   5.084823   0.352225  -0.057333   0.396048
    22  C    0.000000   0.000000   0.352225   5.060448   0.340635  -0.041794
    23  C    0.000000  -0.000000  -0.057333   0.340635   5.097455  -0.002870
    24  H    0.000000  -0.000000   0.396048  -0.041794  -0.002870   0.566595
    25  H   -0.000000  -0.000000   0.396028  -0.041944  -0.002870  -0.031480
    26  H   -0.000000   0.000000  -0.043621   0.399158  -0.039889  -0.002968
    27  H   -0.000000   0.000000  -0.043794   0.399050  -0.039970   0.004572
    28  H   -0.000000   0.000000  -0.003791  -0.038911   0.391247   0.000160
    29  H    0.000000  -0.000000  -0.003799  -0.038878   0.391304   0.002622
    30  H    0.000000  -0.000000   0.004400  -0.035840   0.394094  -0.000059
    31  C   -0.000000   0.000000   0.354293  -0.051931   0.004061  -0.041505
    32  C    0.000000  -0.000000  -0.051839   0.003981  -0.000085  -0.003235
    33  C   -0.000000   0.000000   0.004062  -0.000085   0.000001  -0.000053
    34  H    0.000000   0.000000  -0.041722  -0.003278  -0.000052  -0.002804
    35  H    0.000000  -0.000000  -0.041614  -0.003253  -0.000046   0.004385
    36  H   -0.000000   0.000000  -0.003232  -0.000064  -0.000000   0.002406
    37  H    0.000000  -0.000000  -0.003226  -0.000065  -0.000000   0.000241
    38  H    0.000000  -0.000000  -0.000060  -0.000000   0.000000  -0.000002
    39  H    0.000000  -0.000000  -0.000070  -0.000001  -0.000000   0.000013
    40  H   -0.000000   0.000000  -0.000087   0.000001  -0.000000   0.000001
              25         26         27         28         29         30
     1  C    0.000000   0.000000  -0.000000   0.000000   0.000000   0.000000
     2  C    0.000000   0.000000  -0.000002  -0.000000  -0.000000  -0.000000
     3  C   -0.000000  -0.000000   0.000001  -0.000000   0.000000   0.000000
     4  H   -0.000000  -0.000000  -0.000000  -0.000000   0.000000   0.000000
     5  H    0.000000   0.000000   0.000000  -0.000000  -0.000000  -0.000000
     6  H    0.000002  -0.000000   0.000040  -0.000000   0.000000  -0.000000
     7  H   -0.000000  -0.000000  -0.000000  -0.000000   0.000000   0.000000
     8  H    0.000000   0.000000   0.000000   0.000000   0.000000  -0.000000
     9  H   -0.000000  -0.000000   0.000002  -0.000000   0.000000  -0.000000
    10  H    0.000000   0.000001   0.000001   0.000000   0.000000   0.000000
    11  C    0.000000  -0.000000  -0.000000  -0.000000  -0.000000  -0.000000
    12  C    0.000000   0.000000   0.000000   0.000000   0.000000   0.000000
    13  C   -0.000000  -0.000000  -0.000000  -0.000000  -0.000000   0.000000
    14  H    0.000000   0.000000   0.000000   0.000000  -0.000000  -0.000000
    15  H   -0.000000   0.000000  -0.000000   0.000000  -0.000000   0.000000
    16  H   -0.000000  -0.000000   0.000000  -0.000000  -0.000000   0.000000
    17  H    0.000000  -0.000000   0.000000  -0.000000   0.000000  -0.000000
    18  H    0.000000   0.000000   0.000000  -0.000000  -0.000000  -0.000000
    19  H   -0.000000  -0.000000  -0.000000  -0.000000   0.000000   0.000000
    20  H   -0.000000   0.000000   0.000000   0.000000  -0.000000  -0.000000
    21  C    0.396028  -0.043621  -0.043794  -0.003791  -0.003799   0.004400
    22  C   -0.041944   0.399158   0.399050  -0.038911  -0.038878  -0.035840
    23  C   -0.002870  -0.039889  -0.039970   0.391247   0.391304   0.394094
    24  H   -0.031480  -0.002968   0.004572   0.000160   0.002622  -0.000059
    25  H    0.567472   0.004574  -0.002975   0.002627   0.000159  -0.000059
    26  H    0.004574   0.564044  -0.031657   0.004219  -0.002886  -0.002506
    27  H   -0.002975  -0.031657   0.565337  -0.002893   0.004225  -0.002510
    28  H    0.002627   0.004219  -0.002893   0.548986  -0.029133  -0.027511
    29  H    0.000159  -0.002886   0.004225  -0.029133   0.548636  -0.027489
    30  H   -0.000059  -0.002506  -0.002510  -0.027511  -0.027489   0.537345
    31  C   -0.041670  -0.003200  -0.003029  -0.000070  -0.000069  -0.000087
    32  C   -0.003260  -0.000065  -0.000065  -0.000001  -0.000001   0.000001
    33  C   -0.000052  -0.000000  -0.000000  -0.000000  -0.000000  -0.000000
    34  H    0.004478   0.002412   0.000244  -0.000001   0.000013   0.000001
    35  H   -0.002834   0.000252   0.002250   0.000014  -0.000002   0.000001
    36  H    0.000239   0.000017  -0.000003   0.000000  -0.000002   0.000000
    37  H    0.002418  -0.000003   0.000017  -0.000002   0.000000   0.000000
    38  H    0.000014   0.000000  -0.000002   0.000000  -0.000000  -0.000000
    39  H   -0.000001  -0.000002   0.000000  -0.000000   0.000000  -0.000000
    40  H    0.000001   0.000000   0.000000  -0.000000  -0.000000   0.000000
              31         32         33         34         35         36
     1  C    0.000009  -0.000001   0.000010   0.000000   0.000015   0.000000
     2  C   -0.000546   0.000040  -0.000355   0.000020  -0.000376  -0.000001
     3  C    0.000010  -0.000001   0.000015  -0.000016   0.000065  -0.000000
     4  H    0.000000   0.000000  -0.000000  -0.000000   0.000000  -0.000000
     5  H   -0.000000   0.000000  -0.000000   0.000000  -0.000000  -0.000000
     6  H   -0.000380   0.000043  -0.000110   0.000017   0.001650  -0.000001
     7  H    0.000019  -0.000010  -0.000214  -0.000001   0.000016   0.000000
     8  H   -0.000000  -0.000000  -0.000001   0.000000  -0.000000   0.000000
     9  H   -0.000001   0.000000  -0.000001  -0.000001   0.000008  -0.000000
    10  H    0.000106  -0.000014   0.000051   0.000093   0.000120   0.000000
    11  C   -0.000000  -0.000000  -0.000001  -0.000000  -0.000002   0.000000
    12  C    0.000000  -0.000000   0.000000   0.000000   0.000000   0.000000
    13  C   -0.000000   0.000000  -0.000000  -0.000000   0.000000  -0.000000
    14  H   -0.000000   0.000000  -0.000001  -0.000000   0.000003   0.000000
    15  H   -0.000000  -0.000000  -0.000002  -0.000000   0.000000   0.000000
    16  H   -0.000000   0.000000  -0.000000  -0.000000  -0.000000  -0.000000
    17  H   -0.000000   0.000000  -0.000000   0.000000   0.000000  -0.000000
    18  H   -0.000000   0.000000  -0.000000   0.000000  -0.000000  -0.000000
    19  H   -0.000000   0.000000  -0.000000   0.000000   0.000000  -0.000000
    20  H    0.000000  -0.000000   0.000000   0.000000  -0.000000   0.000000
    21  C    0.354293  -0.051839   0.004062  -0.041722  -0.041614  -0.003232
    22  C   -0.051931   0.003981  -0.000085  -0.003278  -0.003253  -0.000064
    23  C    0.004061  -0.000085   0.000001  -0.000052  -0.000046  -0.000000
    24  H   -0.041505  -0.003235  -0.000053  -0.002804   0.004385   0.002406
    25  H   -0.041670  -0.003260  -0.000052   0.004478  -0.002834   0.000239
    26  H   -0.003200  -0.000065  -0.000000   0.002412   0.000252   0.000017
    27  H   -0.003029  -0.000065  -0.000000   0.000244   0.002250  -0.000003
    28  H   -0.000070  -0.000001  -0.000000  -0.000001   0.000014   0.000000
    29  H   -0.000069  -0.000001  -0.000000   0.000013  -0.000002  -0.000002
    30  H   -0.000087   0.000001  -0.000000   0.000001   0.000001   0.000000
    31  C    5.094265   0.351714  -0.056951   0.396352   0.395796  -0.043675
    32  C    0.351714   5.060021   0.339791  -0.041882  -0.041686   0.399380
    33  C   -0.056951   0.339791   5.104488  -0.002858  -0.002870  -0.039941
    34  H    0.396352  -0.041882  -0.002858   0.567251  -0.031704  -0.002983
    35  H    0.395796  -0.041686  -0.002870  -0.031704   0.558005   0.004516
    36  H   -0.043675   0.399380  -0.039941  -0.002983   0.004516   0.564594
    37  H   -0.043545   0.399011  -0.039864   0.004577  -0.003022  -0.031647
    38  H   -0.003762  -0.038224   0.391434   0.000170   0.002086   0.004115
    39  H   -0.003803  -0.038977   0.391351   0.002633   0.000167  -0.002892
    40  H    0.004392  -0.035835   0.393429  -0.000059  -0.000047  -0.002537
              37         38         39         40
     1  C    0.000000  -0.000011   0.000000  -0.000000
     2  C    0.000001   0.000294   0.000013   0.000003
     3  C   -0.000000  -0.000054  -0.000008   0.000000
     4  H   -0.000000   0.000001   0.000000   0.000000
     5  H    0.000000   0.000001   0.000000   0.000000
     6  H    0.000011   0.000155   0.000001   0.000001
     7  H    0.000000   0.001081   0.000019   0.000004
     8  H    0.000000   0.000002   0.000000   0.000000
     9  H    0.000000   0.000001   0.000000   0.000000
    10  H    0.000000   0.000041   0.000030  -0.000001
    11  C    0.000000   0.000012  -0.000000   0.000000
    12  C   -0.000000  -0.000000  -0.000000  -0.000000
    13  C   -0.000000   0.000000  -0.000000   0.000000
    14  H    0.000000   0.000008   0.000000   0.000000
    15  H   -0.000000   0.000022  -0.000000   0.000000
    16  H    0.000000   0.000000   0.000000   0.000000
    17  H    0.000000   0.000000   0.000000   0.000000
    18  H    0.000000   0.000000   0.000000  -0.000000
    19  H    0.000000   0.000000   0.000000  -0.000000
    20  H   -0.000000  -0.000000  -0.000000   0.000000
    21  C   -0.003226  -0.000060  -0.000070  -0.000087
    22  C   -0.000065  -0.000000  -0.000001   0.000001
    23  C   -0.000000   0.000000  -0.000000  -0.000000
    24  H    0.000241  -0.000002   0.000013   0.000001
    25  H    0.002418   0.000014  -0.000001   0.000001
    26  H   -0.000003   0.000000  -0.000002   0.000000
    27  H    0.000017  -0.000002   0.000000   0.000000
    28  H   -0.000002   0.000000  -0.000000  -0.000000
    29  H    0.000000  -0.000000   0.000000  -0.000000
    30  H    0.000000  -0.000000  -0.000000   0.000000
    31  C   -0.043545  -0.003762  -0.003803   0.004392
    32  C    0.399011  -0.038224  -0.038977  -0.035835
    33  C   -0.039864   0.391434   0.391351   0.393429
    34  H    0.004577   0.000170   0.002633  -0.000059
    35  H   -0.003022   0.002086   0.000167  -0.000047
    36  H   -0.031647   0.004115  -0.002892  -0.002537
    37  H    0.564768  -0.002860   0.004229  -0.002520
    38  H   -0.002860   0.540013  -0.029221  -0.027068
    39  H    0.004229  -0.029221   0.549709  -0.027566
    40  H   -0.002520  -0.027068  -0.027566   0.538245
 Mulliken charges:
               1
     1  C   -0.297296
     2  C   -0.308388
     3  C   -0.476001
     4  H    0.149617
     5  H    0.149784
     6  H    0.156663
     7  H    0.154522
     8  H    0.155238
     9  H    0.154989
    10  H    0.161955
    11  C   -0.298475
    12  C   -0.299625
    13  C   -0.475745
    14  H    0.148841
    15  H    0.149735
    16  H    0.152000
    17  H    0.152143
    18  H    0.155312
    19  H    0.155089
    20  H    0.160397
    21  C   -0.297699
    22  C   -0.299455
    23  C   -0.475681
    24  H    0.149727
    25  H    0.149134
    26  H    0.152119
    27  H    0.151161
    28  H    0.155059
    29  H    0.155296
    30  H    0.160218
    31  C   -0.306792
    32  C   -0.298803
    33  C   -0.481270
    34  H    0.149100
    35  H    0.158107
    36  H    0.151710
    37  H    0.151479
    38  H    0.161818
    39  H    0.154373
    40  H    0.159642
 Sum of Mulliken charges =  -0.00000
 Mulliken charges with hydrogens summed into heavy atoms:
               1
     1  C    0.002105
     2  C    0.002797
     3  C   -0.003819
    11  C    0.000100
    12  C    0.004518
    13  C   -0.004948
    21  C    0.001162
    22  C    0.003825
    23  C   -0.005106
    31  C    0.000415
    32  C    0.004386
    33  C   -0.005436
 Electronic spatial extent (au):  <R**2>=           5593.9537
 Charge=             -0.0000 electrons
 Dipole moment (field-independent basis, Debye):
    X=              0.0321    Y=             -0.0006    Z=              0.0215  Tot=              0.0386
 Quadrupole moment (field-independent basis, Debye-Ang):
   XX=            -84.5488   YY=            -84.5872   ZZ=            -85.6853
   XY=             -0.4271   XZ=              0.0793   YZ=             -0.0024
 Traceless Quadrupole moment (field-independent basis, Debye-Ang):
   XX=              0.3916   YY=              0.3533   ZZ=             -0.7449
   XY=             -0.4271   XZ=              0.0793   YZ=             -0.0024
 Octapole moment (field-independent basis, Debye-Ang**2):
  XXX=             -0.9824  YYY=             -0.8147  ZZZ=             -1.2677  XYY=              3.6063
  XXY=              9.3824  XXZ=              5.3707  XZZ=             -2.4835  YZZ=              0.0647
  YYZ=              0.7223  XYZ=              0.0405
 Hexadecapole moment (field-independent basis, Debye-Ang**3):
 XXXX=          -5644.8777 YYYY=          -1274.3794 ZZZZ=          -1018.3385 XXXY=            -23.0737
 XXXZ=              3.9551 YYYX=            -11.9858 YYYZ=             -5.1062 ZZZX=              5.0280
 ZZZY=             -4.2321 XXYY=          -1159.8273 XXZZ=          -1124.9512 YYZZ=           -368.7497
 XXYZ=             -1.9632 YYXZ=             -3.8601 ZZXY=              6.3631
 N-N= 6.941909042735D+02 E-N=-2.481516197754D+03  KE= 4.702285452653D+02
 Leave Link  601 at Wed May  5 19:45:59 2021, MaxMem=   524288000 cpu:               0.4 elap:               0.5
 (Enter /opt/gaussian/g16_legacy/l9999.exe)
 1\1\GINC-TRUENO92\SP\RMP2-FC\6-31G(d)\C12H28\JRAMOS\05-May-2021\0\\#p 
 6-31g* mp2\\Input file generated by CHIRIPA (05-May-2021 14:51:10)\\0,
 1\C,0,-0.666,-0.374,0.\C,0,-1.882,0.553,0.\C,0,-3.207,-0.21,0.\H,0,-0.
 713,-1.03,-0.88\H,0,-0.713,-1.029,0.881\H,0,-1.832,1.207,-0.88\H,0,-1.
 832,1.207,0.88\H,0,-3.283,-0.85,0.885\H,0,-3.283,-0.85,-0.885\H,0,-4.0
 63,0.472,0.\C,0,0.666,0.374,0.\C,0,1.882,-0.553,0.\C,0,3.207,0.21,0.\H
 ,0,0.713,1.029,-0.881\H,0,0.713,1.03,0.88\H,0,1.832,-1.207,-0.88\H,0,1
 .832,-1.207,0.88\H,0,3.283,0.85,0.885\H,0,3.283,0.85,-0.885\H,0,4.063,
 -0.472,0.\C,0,-3.461307,4.34844,-3.543945\C,0,-4.01442,3.253589,-4.456
 827\C,0,-3.986226,3.645746,-5.934396\H,0,-4.042908,5.268687,-3.6917\H,
 0,-2.429583,4.579266,-3.843377\H,0,-5.044321,3.023923,-4.154878\H,0,-3
 .431557,2.335787,-4.306741\H,0,-2.961499,3.855252,-6.257881\H,0,-4.583
 426,4.547298,-6.105155\H,0,-4.386064,2.848709,-6.569\C,0,-3.482878,3.9
 71225,-2.063752\C,0,-2.929766,5.066076,-1.15087\C,0,-2.957959,4.673919
 ,0.3267\H,0,-4.514602,3.740399,-1.764319\H,0,-2.901278,3.050978,-1.915
 996\H,0,-3.512629,5.983879,-1.300956\H,0,-1.899865,5.295743,-1.452819\
 H,0,-2.360759,3.772368,0.497458\H,0,-3.982687,4.464414,0.650184\H,0,-2
 .558122,5.470957,0.961303\\Version=EM64L-G16RevA.03\State=1-A\HF=-470.
 7330045\MP2=-472.3166497\RMSD=1.911e-09\PG=C01 [X(C12H28)]\\@


 SILVERMAN'S PARADOX - IF MURPHY'S LAW CAN GO WRONG, IT WILL.
 Job cpu time:       0 days  0 hours  1 minutes 58.3 seconds.
 Elapsed time:       0 days  0 hours  1 minutes  4.5 seconds.
 File lengths (MBytes):  RWF=     26 Int=      0 D2E=      0 Chk=      5 Scr=      1
 Normal termination of Gaussian 16 at Wed May  5 19:46:00 2021.
