 Entering Gaussian System, Link 0=/opt/gaussian/g16_legacy/g16
 Input=gaussian_00251_1_1.com
 Output=gaussian_00251_1_1.log
 Initial command:
 /opt/gaussian/g16_legacy/l1.exe "/scratch-local/jramos/2582611/Gau-21898.inp" -scrdir="/scratch-local/jramos/2582611/"
 Entering Link 1 = /opt/gaussian/g16_legacy/l1.exe PID=     21899.
  
 Copyright (c) 1988,1990,1992,1993,1995,1998,2003,2009,2016,
            Gaussian, Inc.  All Rights Reserved.
  
 This is part of the Gaussian(R) 16 program.  It is based on
 the Gaussian(R) 09 system (copyright 2009, Gaussian, Inc.),
 the Gaussian(R) 03 system (copyright 2003, Gaussian, Inc.),
 the Gaussian(R) 98 system (copyright 1998, Gaussian, Inc.),
 the Gaussian(R) 94 system (copyright 1995, Gaussian, Inc.),
 the Gaussian 92(TM) system (copyright 1992, Gaussian, Inc.),
 the Gaussian 90(TM) system (copyright 1990, Gaussian, Inc.),
 the Gaussian 88(TM) system (copyright 1988, Gaussian, Inc.),
 the Gaussian 86(TM) system (copyright 1986, Carnegie Mellon
 University), and the Gaussian 82(TM) system (copyright 1983,
 Carnegie Mellon University). Gaussian is a federally registered
 trademark of Gaussian, Inc.
  
 This software contains proprietary and confidential information,
 including trade secrets, belonging to Gaussian, Inc.
  
 This software is provided under written license and may be
 used, copied, transmitted, or stored only in accord with that
 written license.
  
 The following legend is applicable only to US Government
 contracts under FAR:
  
                    RESTRICTED RIGHTS LEGEND
  
 Use, reproduction and disclosure by the US Government is
 subject to restrictions as set forth in subparagraphs (a)
 and (c) of the Commercial Computer Software - Restricted
 Rights clause in FAR 52.227-19.
  
 Gaussian, Inc.
 340 Quinnipiac St., Bldg. 40, Wallingford CT 06492
  
  
 ---------------------------------------------------------------
 Warning -- This program may not be used in any manner that
 competes with the business of Gaussian, Inc. or will provide
 assistance to any competitor of Gaussian, Inc.  The licensee
 of this program is prohibited from giving any competitor of
 Gaussian, Inc. access to this program.  By using this program,
 the user acknowledges that Gaussian, Inc. is engaged in the
 business of creating and licensing software in the field of
 computational chemistry and represents and warrants to the
 licensee that it is not a competitor of Gaussian, Inc. and that
 it will not use this program in any manner prohibited above.
 ---------------------------------------------------------------
  

 Cite this work as:
 Gaussian 16, Revision A.03,
 M. J. Frisch, G. W. Trucks, H. B. Schlegel, G. E. Scuseria, 
 M. A. Robb, J. R. Cheeseman, G. Scalmani, V. Barone, 
 G. A. Petersson, H. Nakatsuji, X. Li, M. Caricato, A. V. Marenich, 
 J. Bloino, B. G. Janesko, R. Gomperts, B. Mennucci, H. P. Hratchian, 
 J. V. Ortiz, A. F. Izmaylov, J. L. Sonnenberg, D. Williams-Young, 
 F. Ding, F. Lipparini, F. Egidi, J. Goings, B. Peng, A. Petrone, 
 T. Henderson, D. Ranasinghe, V. G. Zakrzewski, J. Gao, N. Rega, 
 G. Zheng, W. Liang, M. Hada, M. Ehara, K. Toyota, R. Fukuda, 
 J. Hasegawa, M. Ishida, T. Nakajima, Y. Honda, O. Kitao, H. Nakai, 
 T. Vreven, K. Throssell, J. A. Montgomery, Jr., J. E. Peralta, 
 F. Ogliaro, M. J. Bearpark, J. J. Heyd, E. N. Brothers, K. N. Kudin, 
 V. N. Staroverov, T. A. Keith, R. Kobayashi, J. Normand, 
 K. Raghavachari, A. P. Rendell, J. C. Burant, S. S. Iyengar, 
 J. Tomasi, M. Cossi, J. M. Millam, M. Klene, C. Adamo, R. Cammi, 
 J. W. Ochterski, R. L. Martin, K. Morokuma, O. Farkas, 
 J. B. Foresman, and D. J. Fox, Gaussian, Inc., Wallingford CT, 2016.
 
 ******************************************
 Gaussian 16:  EM64L-G16RevA.03 25-Dec-2016
                 5-May-2021 
 ******************************************
 %chk=gaussian_00251_1_1.chk
 %nproc=2
 Will use up to    2 processors via shared memory.
 %mem=4000Mb
 -------------
 #p 6-31g* mp2
 -------------
 1/38=1,172=1/1;
 2/12=2,17=6,18=5,40=1/2;
 3/5=1,6=6,7=1,11=9,25=1,30=1/1,2,3;
 4//1;
 5/5=2,38=5/2;
 8/10=2/1;
 9/16=-3/6;
 6/7=2,8=2,9=2,10=2/1;
 99/5=1,9=1/99;
 Leave Link    1 at Wed May  5 15:01:42 2021, MaxMem=   524288000 cpu:               0.0 elap:               0.1
 (Enter /opt/gaussian/g16_legacy/l101.exe)
 ------------------------------------------------------
 Input file generated by CHIRIPA (05-May-2021 14:51:07)
 ------------------------------------------------------
 Symbolic Z-matrix:
 Charge =  0 Multiplicity = 1
 C                    -0.666    -0.374     0. 
 C                    -1.882     0.553     0. 
 C                    -3.207    -0.21      0. 
 H                    -0.713    -1.03     -0.88 
 H                    -0.713    -1.029     0.881 
 H                    -1.832     1.207    -0.88 
 H                    -1.832     1.207     0.88 
 H                    -3.283    -0.85      0.885 
 H                    -3.283    -0.85     -0.885 
 H                    -4.063     0.472     0. 
 C                     0.666     0.374     0. 
 C                     1.882    -0.553     0. 
 C                     3.207     0.21      0. 
 H                     0.713     1.029    -0.881 
 H                     0.713     1.03      0.88 
 H                     1.832    -1.207    -0.88 
 H                     1.832    -1.207     0.88 
 H                     3.283     0.85      0.885 
 H                     3.283     0.85     -0.885 
 H                     4.063    -0.472     0. 
 C                     6.4585    4.77349  -0.50641 
 C                     6.61408   3.90434   0.74193 
 C                     5.96299   2.5293    0.5898 
 H                     5.38976   4.89498  -0.72998 
 H                     6.9002    4.2507   -1.36606 
 H                     6.17345   4.42922   1.59923 
 H                     7.68257   3.78506   0.96266 
 H                     6.40854   1.98261  -0.24758 
 H                     4.89085   2.63043   0.39261 
 H                     6.08613   1.92458   1.49368 
 C                     7.10423   6.1512   -0.36971 
 C                     6.94865   7.02034  -1.61805 
 C                     7.59974   8.39538  -1.46592 
 H                     6.66253   6.67398   0.48994 
 H                     8.17297   6.0297   -0.14615 
 H                     5.88016   7.13962  -1.83878 
 H                     7.38928   6.49547  -2.47536 
 H                     8.67188   8.29426  -1.26873 
 H                     7.15419   8.94207  -0.62854 
 H                     7.47659   9.00011  -2.3698 
 
 ITRead=  0  0  0  0  0  0  0  0  0  0  0  0  0  0  0  0  0  0  0  0
 ITRead=  0  0  0  0  0  0  0  0  0  0  0  0  0  0  0  0  0  0  0  0
 MicOpt= -1 -1 -1 -1 -1 -1 -1 -1 -1 -1 -1 -1 -1 -1 -1 -1 -1 -1 -1 -1
 MicOpt= -1 -1 -1 -1 -1 -1 -1 -1 -1 -1 -1 -1 -1 -1 -1 -1 -1 -1 -1 -1
 NAtoms=     40 NQM=       40 NQMF=       0 NMMI=      0 NMMIF=      0
                NMic=       0 NMicF=      0.
                    Isotopes and Nuclear Properties:
 (Nuclear quadrupole moments (NQMom) in fm**2, nuclear magnetic moments (NMagM)
  in nuclear magnetons)

  Atom         1           2           3           4           5           6           7           8           9          10
 IAtWgt=          12          12          12           1           1           1           1           1           1           1
 AtmWgt=  12.0000000  12.0000000  12.0000000   1.0078250   1.0078250   1.0078250   1.0078250   1.0078250   1.0078250   1.0078250
 NucSpn=           0           0           0           1           1           1           1           1           1           1
 AtZEff=  -0.0000000  -0.0000000  -0.0000000  -0.0000000  -0.0000000  -0.0000000  -0.0000000  -0.0000000  -0.0000000  -0.0000000
 NQMom=    0.0000000   0.0000000   0.0000000   0.0000000   0.0000000   0.0000000   0.0000000   0.0000000   0.0000000   0.0000000
 NMagM=    0.0000000   0.0000000   0.0000000   2.7928460   2.7928460   2.7928460   2.7928460   2.7928460   2.7928460   2.7928460
 AtZNuc=   6.0000000   6.0000000   6.0000000   1.0000000   1.0000000   1.0000000   1.0000000   1.0000000   1.0000000   1.0000000

  Atom        11          12          13          14          15          16          17          18          19          20
 IAtWgt=          12          12          12           1           1           1           1           1           1           1
 AtmWgt=  12.0000000  12.0000000  12.0000000   1.0078250   1.0078250   1.0078250   1.0078250   1.0078250   1.0078250   1.0078250
 NucSpn=           0           0           0           1           1           1           1           1           1           1
 AtZEff=  -0.0000000  -0.0000000  -0.0000000  -0.0000000  -0.0000000  -0.0000000  -0.0000000  -0.0000000  -0.0000000  -0.0000000
 NQMom=    0.0000000   0.0000000   0.0000000   0.0000000   0.0000000   0.0000000   0.0000000   0.0000000   0.0000000   0.0000000
 NMagM=    0.0000000   0.0000000   0.0000000   2.7928460   2.7928460   2.7928460   2.7928460   2.7928460   2.7928460   2.7928460
 AtZNuc=   6.0000000   6.0000000   6.0000000   1.0000000   1.0000000   1.0000000   1.0000000   1.0000000   1.0000000   1.0000000

  Atom        21          22          23          24          25          26          27          28          29          30
 IAtWgt=          12          12          12           1           1           1           1           1           1           1
 AtmWgt=  12.0000000  12.0000000  12.0000000   1.0078250   1.0078250   1.0078250   1.0078250   1.0078250   1.0078250   1.0078250
 NucSpn=           0           0           0           1           1           1           1           1           1           1
 AtZEff=  -0.0000000  -0.0000000  -0.0000000  -0.0000000  -0.0000000  -0.0000000  -0.0000000  -0.0000000  -0.0000000  -0.0000000
 NQMom=    0.0000000   0.0000000   0.0000000   0.0000000   0.0000000   0.0000000   0.0000000   0.0000000   0.0000000   0.0000000
 NMagM=    0.0000000   0.0000000   0.0000000   2.7928460   2.7928460   2.7928460   2.7928460   2.7928460   2.7928460   2.7928460
 AtZNuc=   6.0000000   6.0000000   6.0000000   1.0000000   1.0000000   1.0000000   1.0000000   1.0000000   1.0000000   1.0000000

  Atom        31          32          33          34          35          36          37          38          39          40
 IAtWgt=          12          12          12           1           1           1           1           1           1           1
 AtmWgt=  12.0000000  12.0000000  12.0000000   1.0078250   1.0078250   1.0078250   1.0078250   1.0078250   1.0078250   1.0078250
 NucSpn=           0           0           0           1           1           1           1           1           1           1
 AtZEff=  -0.0000000  -0.0000000  -0.0000000  -0.0000000  -0.0000000  -0.0000000  -0.0000000  -0.0000000  -0.0000000  -0.0000000
 NQMom=    0.0000000   0.0000000   0.0000000   0.0000000   0.0000000   0.0000000   0.0000000   0.0000000   0.0000000   0.0000000
 NMagM=    0.0000000   0.0000000   0.0000000   2.7928460   2.7928460   2.7928460   2.7928460   2.7928460   2.7928460   2.7928460
 AtZNuc=   6.0000000   6.0000000   6.0000000   1.0000000   1.0000000   1.0000000   1.0000000   1.0000000   1.0000000   1.0000000
 Leave Link  101 at Wed May  5 15:01:42 2021, MaxMem=   524288000 cpu:               0.2 elap:               0.1
 (Enter /opt/gaussian/g16_legacy/l202.exe)
                          Input orientation:                          
 ---------------------------------------------------------------------
 Center     Atomic      Atomic             Coordinates (Angstroms)
 Number     Number       Type             X           Y           Z
 ---------------------------------------------------------------------
      1          6           0       -0.666000   -0.374000    0.000000
      2          6           0       -1.882000    0.553000    0.000000
      3          6           0       -3.207000   -0.210000    0.000000
      4          1           0       -0.713000   -1.030000   -0.880000
      5          1           0       -0.713000   -1.029000    0.881000
      6          1           0       -1.832000    1.207000   -0.880000
      7          1           0       -1.832000    1.207000    0.880000
      8          1           0       -3.283000   -0.850000    0.885000
      9          1           0       -3.283000   -0.850000   -0.885000
     10          1           0       -4.063000    0.472000    0.000000
     11          6           0        0.666000    0.374000    0.000000
     12          6           0        1.882000   -0.553000    0.000000
     13          6           0        3.207000    0.210000    0.000000
     14          1           0        0.713000    1.029000   -0.881000
     15          1           0        0.713000    1.030000    0.880000
     16          1           0        1.832000   -1.207000   -0.880000
     17          1           0        1.832000   -1.207000    0.880000
     18          1           0        3.283000    0.850000    0.885000
     19          1           0        3.283000    0.850000   -0.885000
     20          1           0        4.063000   -0.472000    0.000000
     21          6           0        6.458500    4.773488   -0.506412
     22          6           0        6.614083    3.904340    0.741931
     23          6           0        5.962987    2.529304    0.589800
     24          1           0        5.389761    4.894983   -0.729977
     25          1           0        6.900200    4.250702   -1.366058
     26          1           0        6.173452    4.429215    1.599233
     27          1           0        7.682571    3.785059    0.962661
     28          1           0        6.408538    1.982610   -0.247583
     29          1           0        4.890845    2.630426    0.392605
     30          1           0        6.086135    1.924576    1.493680
     31          6           0        7.104228    6.151195   -0.369710
     32          6           0        6.948645    7.020343   -1.618053
     33          6           0        7.599741    8.395379   -1.465922
     34          1           0        6.662528    6.673981    0.489936
     35          1           0        8.172967    6.029700   -0.146145
     36          1           0        5.880157    7.139624   -1.838783
     37          1           0        7.389276    6.495468   -2.475355
     38          1           0        8.671883    8.294257   -1.268727
     39          1           0        7.154190    8.942073   -0.628538
     40          1           0        7.476593    9.000107   -2.369802
 ---------------------------------------------------------------------
                    Distance matrix (angstroms):
                    1          2          3          4          5
     1  C    0.000000
     2  C    1.529047   0.000000
     3  C    2.546287   1.528985   0.000000
     4  H    1.098610   2.155655   2.768905   0.000000
     5  H    1.098815   2.155330   2.768927   1.761000   0.000000
     6  H    2.152561   1.097550   2.161692   2.501266   3.058264
     7  H    2.152561   1.097550   2.161692   3.058420   2.500372
     8  H    2.803300   2.171275   1.094806   3.122903   2.576229
     9  H    2.803300   2.171275   1.094806   2.576301   3.123411
    10  H    3.500761   2.182504   1.094468   3.775302   3.775137
    11  C    1.527654   2.554280   3.916782   2.155750   2.155507
    12  C    2.554280   3.923128   5.100546   2.781358   2.781504
    13  C    3.916782   5.100546   6.427736   4.204569   4.204484
    14  H    2.155507   2.781504   4.204484   2.504587   3.061615
    15  H    2.155750   2.781358   4.204569   3.061809   2.504587
    16  H    2.776381   4.203070   5.211519   2.551148   3.099973
    17  H    2.776381   4.203070   5.211519   3.099347   2.551217
    18  H    4.228002   5.248682   6.635279   4.755801   4.415730
    19  H    4.228002   5.248682   6.635279   4.416157   4.755777
    20  H    4.730015   6.032715   7.274720   4.888347   4.888413
    21  C    8.804066   9.361245  10.886390   9.233117   9.328676
    22  C    8.476689   9.163262  10.673890   8.981343   8.834214
    23  C    7.260889   8.111564   9.588551   7.706994   7.570675
    24  H    8.060229   8.500835  10.024870   8.507151   8.656357
    25  H    8.972255   9.626326  11.131912   9.278086   9.533380
    26  H    8.509202   9.081459  10.586441   9.130873   8.816529
    27  H    9.376733  10.141693  11.639157   9.852198   9.678194
    28  H    7.460831   8.416537   9.865465   7.758355   7.814077
    29  H    6.329237   7.095158   8.590533   6.813319   6.710664
    30  H    7.287377   8.222133   9.651417   7.784094   7.438227
    31  C   10.153389  10.593808  12.121176  10.627277  10.687775
    32  C   10.736723  11.064579  12.571121  11.137933  11.390259
    33  C   12.139745  12.391741  13.891981  12.581047  12.783921
    34  H   10.179460  10.522139  12.043123  10.752975  10.671797
    35  H   10.915863  11.450675  12.979170  11.372701  11.394766
    36  H   10.133501  10.344845  11.831083  10.541904  10.844047
    37  H   10.872187  11.287022  12.781696  11.172498  11.555501
    38  H   12.804078  13.149950  14.664239  13.235139  13.402256
    39  H   12.179476  12.346025  13.838705  12.704257  12.790375
    40  H   12.640873  12.827815  14.303188  13.034262  13.349911
                    6          7          8          9         10
     6  H    0.000000
     7  H    1.760000   0.000000
     8  H    3.074390   2.517275   0.000000
     9  H    2.517275   3.074390   1.770000   0.000000
    10  H    2.508383   2.508383   1.771810   1.771810   0.000000
    11  C    2.776381   2.776381   4.228002   4.228002   4.730015
    12  C    4.203070   4.203070   5.248682   5.248682   6.032715
    13  C    5.211519   5.211519   6.635279   6.635279   7.274720
    14  H    2.551217   3.099973   4.755777   4.415730   4.888413
    15  H    3.099347   2.551148   4.416157   4.755801   4.888347
    16  H    4.387743   4.727567   5.422721   5.127446   6.192291
    17  H    4.727567   4.387743   5.127446   5.422721   6.192291
    18  H    5.422721   5.127446   6.782504   7.009654   7.408767
    19  H    5.127446   5.422721   7.009654   6.782504   7.408767
    20  H    6.192291   6.192291   7.408767   7.408767   8.180649
    21  C    9.032818   9.130956  11.333864  11.254500  11.378102
    22  C    9.013469   8.867414  10.980732  11.099680  11.239730
    23  C    8.041805   7.911670   9.848610   9.954045  10.251867
    24  H    8.110336   8.267229  10.527572  10.404117  10.461851
    25  H    9.260221   9.516313  11.609564  11.399392  11.676320
    26  H    8.978671   8.659517  10.853788  11.111526  11.090629
    27  H   10.028402   9.858006  11.905190  12.047463  12.241794
    28  H    8.301084   8.353411  10.160331  10.117109  10.582833
    29  H    6.988727   6.889147   8.897615   8.975376   9.218692
    30  H    8.297357   7.974232   9.790273  10.056693  10.360791
    31  C   10.225538  10.288975  12.589104  12.537016  12.533831
    32  C   10.556486  10.822890  13.148921  12.929278  12.913374
    33  C   11.873240  12.088585  14.471970  14.291555  14.175627
    34  H   10.194195  10.109255  12.477175  12.546484  12.399256
    35  H   11.130873  11.153958  13.402713  13.383399  13.439802
    36  H    9.777150  10.102731  12.458593  12.194558  12.112172
    37  H   10.749185  11.147118  13.384519  13.053069  13.174376
    38  H   12.677219  12.852151  15.204447  15.056026  14.999154
    39  H   11.859435  11.952349  14.391332  14.313819  14.069916
    40  H   12.231187  12.567563  14.946143  14.662813  14.543273
                   11         12         13         14         15
    11  C    0.000000
    12  C    1.529047   0.000000
    13  C    2.546287   1.528985   0.000000
    14  H    1.098815   2.155330   2.768927   0.000000
    15  H    1.098610   2.155655   2.768905   1.761000   0.000000
    16  H    2.152561   1.097550   2.161692   2.500372   3.058420
    17  H    2.152561   1.097550   2.161692   3.058264   2.501266
    18  H    2.803300   2.171275   1.094806   3.123411   2.576301
    19  H    2.803300   2.171275   1.094806   2.576229   3.122903
    20  H    3.500761   2.182504   1.094468   3.775137   3.775302
    21  C    7.291434   7.040758   5.626200   6.868208   6.996185
    22  C    6.956540   6.543008   5.080042   6.761972   6.565339
    23  C    5.749023   5.148098   3.650000   5.654779   5.467586
    24  H    6.579215   6.520565   5.219806   6.069656   6.277118
    25  H    7.467274   7.079830   5.642084   6.992574   7.327970
    26  H    7.023841   6.767317   5.399922   6.894168   6.472132
    27  H    7.860936   7.306990   5.808485   7.718152   7.494805
    28  H    5.968724   5.194243   3.667873   5.809453   5.883712
    29  H    4.805717   4.397896   2.974548   4.651991   4.500367
    30  H    5.832086   5.103353   3.668824   5.942368   5.481555
    31  C    8.658143   8.506150   7.114975   8.206467   8.284697
    32  C    9.287820   9.254432   7.937177   8.678866   9.000430
    33  C   10.703654  10.719840   9.404548  10.101132  10.352746
    34  H    8.711380   8.678867   7.346003   8.315176   8.209967
    35  H    9.400152   9.106567   7.651869   9.011000   9.038865
    36  H    8.737404   8.862440   7.651574   8.059565   8.450964
    37  H    9.423492   9.281076   7.945182   8.774788   9.257560
    38  H   11.332886  11.224355   9.840215  10.783233  10.987733
    39  H   10.765851  10.878762   9.603357  10.206341  10.313366
    40  H   11.243214  11.321541  10.055415  10.559416  10.946689
                   16         17         18         19         20
    16  H    0.000000
    17  H    1.760000   0.000000
    18  H    3.074390   2.517275   0.000000
    19  H    2.517275   3.074390   1.770000   0.000000
    20  H    2.508383   2.508383   1.771810   1.771810   0.000000
    21  C    7.570357   7.687189   5.235798   5.061708   5.788784
    22  C    7.185038   7.000941   4.521678   4.803333   5.119652
    23  C    5.760671   5.577566   3.176403   3.489617   3.600783
    24  H    7.065010   7.244576   4.838231   4.563372   5.576528
    25  H    7.463874   7.779328   5.451254   4.988018   5.676243
    26  H    7.534038   7.150694   4.655708   5.228471   5.570769
    27  H    7.908554   7.691337   5.289313   5.602200   5.670147
    28  H    5.614113   5.691200   3.512056   3.384981   3.404109
    29  H    5.069704   4.931524   2.448987   2.717969   3.234890
    30  H    5.791268   5.317992   3.063131   3.830196   3.473864
    31  C    9.066412   9.137899   6.654228   6.555149   7.297429
    32  C    9.716684  10.005473   7.601010   7.214392   8.190253
    33  C   11.216765  11.444469   9.005211   8.712317   9.658565
    34  H    9.344549   9.251811   6.745075   6.872439   7.619884
    35  H    9.649675   9.676294   7.197522   7.161493   7.693198
    36  H    9.325930   9.666721   7.329638   6.871266   8.038657
    37  H    9.631017  10.073219   7.747567   7.159751   8.107842
    38  H   11.713624  11.902727   9.439045   9.198058   9.984925
    39  H   11.462662  11.558766   9.097173   8.974048   9.928509
    40  H   11.758655  12.108166   9.726469   9.285209  10.343568
                   21         22         23         24         25
    21  C    0.000000
    22  C    1.529047   0.000000
    23  C    2.546287   1.528985   0.000000
    24  H    1.098611   2.155656   2.768905   0.000000
    25  H    1.098815   2.155330   2.768928   1.761001   0.000000
    26  H    2.152561   1.097550   2.161692   2.501266   3.058264
    27  H    2.152561   1.097550   2.161693   3.058420   2.500372
    28  H    2.803300   2.171274   1.094806   3.122904   2.576230
    29  H    2.803300   2.171275   1.094806   2.576301   3.123411
    30  H    3.500760   2.182503   1.094468   3.775302   3.775138
    31  C    1.527655   2.554280   3.916782   2.155750   2.155507
    32  C    2.554280   3.923128   5.100546   2.781358   2.781503
    33  C    3.916782   5.100546   6.427736   4.204569   4.204483
    34  H    2.155507   2.781503   4.204483   2.504587   3.061614
    35  H    2.155750   2.781358   4.204569   3.061810   2.504587
    36  H    2.776381   4.203070   5.211519   2.551147   3.099972
    37  H    2.776382   4.203070   5.211519   3.099348   2.551217
    38  H    4.228002   5.248682   6.635279   4.755801   4.415730
    39  H    4.228002   5.248681   6.635278   4.416156   4.755776
    40  H    4.730015   6.032715   7.274719   4.888347   4.888413
                   26         27         28         29         30
    26  H    0.000000
    27  H    1.760000   0.000000
    28  H    3.074389   2.517275   0.000000
    29  H    2.517275   3.074390   1.770000   0.000000
    30  H    2.508382   2.508383   1.771809   1.771809   0.000000
    31  C    2.776382   2.776381   4.228002   4.228002   4.730015
    32  C    4.203070   4.203070   5.248681   5.248682   6.032715
    33  C    5.211519   5.211519   6.635278   6.635279   7.274719
    34  H    2.551217   3.099972   4.755776   4.415730   4.888413
    35  H    3.099348   2.551147   4.416156   4.755801   4.888347
    36  H    4.387743   4.727567   5.422720   5.127445   6.192291
    37  H    4.727568   4.387743   5.127446   5.422721   6.192291
    38  H    5.422721   5.127445   6.782503   7.009654   7.408767
    39  H    5.127446   5.422720   7.009654   6.782503   7.408766
    40  H    6.192291   6.192291   7.408766   7.408767   8.180648
                   31         32         33         34         35
    31  C    0.000000
    32  C    1.529047   0.000000
    33  C    2.546287   1.528985   0.000000
    34  H    1.098815   2.155330   2.768928   0.000000
    35  H    1.098611   2.155656   2.768905   1.761001   0.000000
    36  H    2.152561   1.097550   2.161693   2.500372   3.058420
    37  H    2.152561   1.097550   2.161692   3.058264   2.501266
    38  H    2.803300   2.171275   1.094806   3.123411   2.576301
    39  H    2.803300   2.171275   1.094807   2.576229   3.122903
    40  H    3.500760   2.182503   1.094468   3.775138   3.775302
                   36         37         38         39         40
    36  H    0.000000
    37  H    1.760000   0.000000
    38  H    3.074390   2.517275   0.000000
    39  H    2.517275   3.074390   1.770000   0.000000
    40  H    2.508383   2.508382   1.771809   1.771810   0.000000
 Stoichiometry    C12H28
 Framework group  C1[X(C12H28)]
 Deg. of freedom   114
 Full point group                 C1      NOp   1
 Largest Abelian subgroup         C1      NOp   1
 Largest concise Abelian subgroup C1      NOp   1
                         Standard orientation:                         
 ---------------------------------------------------------------------
 Center     Atomic      Atomic             Coordinates (Angstroms)
 Number     Number       Type             X           Y           Z
 ---------------------------------------------------------------------
      1          6           0        5.109854   -0.145088   -0.122758
      2          6           0        5.482207   -1.561879    0.315469
      3          6           0        6.989758   -1.814551    0.280267
      4          1           0        5.488608    0.028930   -1.139226
      5          1           0        5.619159    0.578498    0.528723
      6          1           0        4.971258   -2.282594   -0.335774
      7          1           0        5.102356   -1.732610    1.330939
      8          1           0        7.512658   -1.118328    0.943931
      9          1           0        7.380815   -1.671437   -0.732252
     10          1           0        7.233580   -2.833335    0.597268
     11          6           0        3.606164    0.122777   -0.092873
     12          6           0        3.233811    1.539568   -0.531099
     13          6           0        1.726260    1.792241   -0.495898
     14          1           0        3.096859   -0.600809   -0.744353
     15          1           0        3.227410   -0.051241    0.923595
     16          1           0        3.613662    1.710300   -1.546570
     17          1           0        3.744760    2.260283    0.120143
     18          1           0        1.335203    1.649127    0.516621
     19          1           0        1.203360    1.096018   -1.159562
     20          1           0        1.482438    2.811025   -0.812899
     21          6           0       -3.683226    0.294448   -0.110919
     22          6           0       -3.171486    1.412340    0.798160
     23          6           0       -1.820542    1.968885    0.347604
     24          1           0       -2.941830   -0.515828   -0.137937
     25          1           0       -3.766891    0.675937   -1.137983
     26          1           0       -3.090127    1.029250    1.823459
     27          1           0       -3.914273    2.219965    0.823169
     28          1           0       -1.890695    2.377090   -0.665830
     29          1           0       -1.061867    1.179609    0.340143
     30          1           0       -1.473476    2.766807    1.011477
     31          6           0       -5.032793   -0.272138    0.326550
     32          6           0       -5.544532   -1.390030   -0.582529
     33          6           0       -6.895477   -1.946575   -0.131973
     34          1           0       -4.949128   -0.653627    1.353614
     35          1           0       -5.774189    0.538138    0.353568
     36          1           0       -4.801745   -2.197655   -0.607538
     37          1           0       -5.625891   -1.006939   -1.607829
     38          1           0       -7.654151   -1.157299   -0.124513
     39          1           0       -6.825323   -2.354779    0.881461
     40          1           0       -7.242542   -2.744497   -0.795846
 ---------------------------------------------------------------------
 Rotational constants (GHZ):           1.2343112           0.1312453           0.1213847
 Leave Link  202 at Wed May  5 15:01:43 2021, MaxMem=   524288000 cpu:               0.0 elap:               0.1
 (Enter /opt/gaussian/g16_legacy/l301.exe)
 Standard basis: 6-31G(d) (6D, 7F)
 Ernie: Thresh=  0.10000D-02 Tol=  0.10000D-05 Strict=F.
 There are   236 symmetry adapted cartesian basis functions of A   symmetry.
 There are   236 symmetry adapted basis functions of A   symmetry.
   236 basis functions,   448 primitive gaussians,   236 cartesian basis functions
    50 alpha electrons       50 beta electrons
       nuclear repulsion energy       649.8434113954 Hartrees.
 IExCor=    0 DFT=F Ex=HF Corr=None ExCW=0 ScaHFX=  1.000000
 ScaDFX=  1.000000  1.000000  1.000000  1.000000 ScalE2=  1.000000  1.000000
 IRadAn=      5 IRanWt=     -1 IRanGd=            0 ICorTp=0 IEmpDi=  4
 NAtoms=   40 NActive=   40 NUniq=   40 SFac= 1.00D+00 NAtFMM=   60 NAOKFM=F Big=F
 Integral buffers will be    131072 words long.
 Raffenetti 1 integral format.
 Two-electron integral symmetry is turned on.
 Leave Link  301 at Wed May  5 15:01:43 2021, MaxMem=   524288000 cpu:               0.1 elap:               0.1
 (Enter /opt/gaussian/g16_legacy/l302.exe)
 NPDir=0 NMtPBC=     1 NCelOv=     1 NCel=       1 NClECP=     1 NCelD=      1
         NCelK=      1 NCelE2=     1 NClLst=     1 CellRange=     0.0.
 One-electron integrals computed using PRISM.
 One-electron integral symmetry used in STVInt
 NBasis=   236 RedAO= T EigKep=  3.19D-03  NBF=   236
 NBsUse=   236 1.00D-06 EigRej= -1.00D+00 NBFU=   236
 Leave Link  302 at Wed May  5 15:01:43 2021, MaxMem=   524288000 cpu:               0.4 elap:               0.3
 (Enter /opt/gaussian/g16_legacy/l303.exe)
 DipDrv:  MaxL=1.
 Leave Link  303 at Wed May  5 15:01:43 2021, MaxMem=   524288000 cpu:               0.1 elap:               0.1
 (Enter /opt/gaussian/g16_legacy/l401.exe)
 ExpMin= 1.61D-01 ExpMax= 3.05D+03 ExpMxC= 4.57D+02 IAcc=3 IRadAn=         5 AccDes= 0.00D+00
 Harris functional with IExCor=  205 and IRadAn=       5 diagonalized for initial guess.
 HarFok:  IExCor=  205 AccDes= 0.00D+00 IRadAn=         5 IDoV= 1 UseB2=F ITyADJ=14
 ICtDFT=  3500011 ScaDFX=  1.000000  1.000000  1.000000  1.000000
 FoFCou: FMM=F IPFlag=           0 FMFlag=      100000 FMFlg1=           0
         NFxFlg=           0 DoJE=T BraDBF=F KetDBF=T FulRan=T
         wScrn=  0.000000 ICntrl=       500 IOpCl=  0 I1Cent=   200000004 NGrid=           0
         NMat0=    1 NMatS0=      1 NMatT0=    0 NMatD0=    1 NMtDS0=    0 NMtDT0=    0
 Petite list used in FoFCou.
 Harris En= -472.099652040035    
 JPrj=0 DoOrth=F DoCkMO=F.
 Leave Link  401 at Wed May  5 15:01:48 2021, MaxMem=   524288000 cpu:               8.3 elap:               4.3
 (Enter /opt/gaussian/g16_legacy/l502.exe)
 Keep R1 ints in memory in canonical form, NReq=397720540.
 FoFCou: FMM=F IPFlag=           0 FMFlag=           0 FMFlg1=           0
         NFxFlg=           0 DoJE=F BraDBF=F KetDBF=F FulRan=T
         wScrn=  0.000000 ICntrl=       600 IOpCl=  0 I1Cent=           0 NGrid=           0
         NMat0=    1 NMatS0=  27966 NMatT0=    0 NMatD0=    1 NMtDS0=    0 NMtDT0=    0
 Symmetry not used in FoFCou.
 Two-electron integral symmetry not used.
 Closed shell SCF:
 Using DIIS extrapolation, IDIIS=  1040.
 NGot=   524288000 LenX=   133109463 LenY=   133053326
 Requested convergence on RMS density matrix=1.00D-08 within 128 cycles.
 Requested convergence on MAX density matrix=1.00D-06.
 Requested convergence on             energy=1.00D-06.
 No special actions if energy rises.

 Cycle   1  Pass 1  IDiag  1:
 E= -469.870315101976    
 DIIS: error= 5.56D-02 at cycle   1 NSaved=   1.
 NSaved= 1 IEnMin= 1 EnMin= -469.870315101976     IErMin= 1 ErrMin= 5.56D-02
 ErrMax= 5.56D-02  0.00D+00 EMaxC= 1.00D-01 BMatC= 1.07D+00 BMatP= 1.07D+00
 IDIUse=3 WtCom= 4.44D-01 WtEn= 5.56D-01
 Coeff-Com:  0.100D+01
 Coeff-En:   0.100D+01
 Coeff:      0.100D+01
 Gap=     0.636 Goal=   None    Shift=    0.000
 GapD=    0.636 DampG=2.000 DampE=0.500 DampFc=1.0000 IDamp=-1.
 RMSDP=4.72D-03 MaxDP=1.19D-01              OVMax= 1.33D-01

 Cycle   2  Pass 1  IDiag  1:
 E= -470.595673745890     Delta-E=       -0.725358643914 Rises=F Damp=F
 DIIS: error= 2.12D-02 at cycle   2 NSaved=   2.
 NSaved= 2 IEnMin= 2 EnMin= -470.595673745890     IErMin= 2 ErrMin= 2.12D-02
 ErrMax= 2.12D-02  0.00D+00 EMaxC= 1.00D-01 BMatC= 1.46D-01 BMatP= 1.07D+00
 IDIUse=3 WtCom= 7.88D-01 WtEn= 2.12D-01
 Coeff-Com:  0.219D+00 0.781D+00
 Coeff-En:   0.000D+00 0.100D+01
 Coeff:      0.173D+00 0.827D+00
 Gap=     0.693 Goal=   None    Shift=    0.000
 RMSDP=1.72D-03 MaxDP=3.35D-02 DE=-7.25D-01 OVMax= 4.83D-02

 Cycle   3  Pass 1  IDiag  1:
 E= -470.726817092964     Delta-E=       -0.131143347073 Rises=F Damp=F
 DIIS: error= 4.51D-03 at cycle   3 NSaved=   3.
 NSaved= 3 IEnMin= 3 EnMin= -470.726817092964     IErMin= 3 ErrMin= 4.51D-03
 ErrMax= 4.51D-03  0.00D+00 EMaxC= 1.00D-01 BMatC= 5.01D-03 BMatP= 1.46D-01
 IDIUse=3 WtCom= 9.55D-01 WtEn= 4.51D-02
 Coeff-Com: -0.262D-01 0.108D+00 0.918D+00
 Coeff-En:   0.000D+00 0.000D+00 0.100D+01
 Coeff:     -0.250D-01 0.103D+00 0.922D+00
 Gap=     0.661 Goal=   None    Shift=    0.000
 RMSDP=2.84D-04 MaxDP=7.33D-03 DE=-1.31D-01 OVMax= 9.69D-03

 Cycle   4  Pass 1  IDiag  1:
 E= -470.732492266101     Delta-E=       -0.005675173138 Rises=F Damp=F
 DIIS: error= 4.43D-04 at cycle   4 NSaved=   4.
 NSaved= 4 IEnMin= 4 EnMin= -470.732492266101     IErMin= 4 ErrMin= 4.43D-04
 ErrMax= 4.43D-04  0.00D+00 EMaxC= 1.00D-01 BMatC= 6.53D-05 BMatP= 5.01D-03
 IDIUse=3 WtCom= 9.96D-01 WtEn= 4.43D-03
 Coeff-Com:  0.120D-02-0.225D-01-0.867D-01 0.111D+01
 Coeff-En:   0.000D+00 0.000D+00 0.000D+00 0.100D+01
 Coeff:      0.119D-02-0.224D-01-0.863D-01 0.111D+01
 Gap=     0.662 Goal=   None    Shift=    0.000
 RMSDP=6.09D-05 MaxDP=1.22D-03 DE=-5.68D-03 OVMax= 1.85D-03

 Cycle   5  Pass 1  IDiag  1:
 E= -470.732600526455     Delta-E=       -0.000108260353 Rises=F Damp=F
 DIIS: error= 1.50D-04 at cycle   5 NSaved=   5.
 NSaved= 5 IEnMin= 5 EnMin= -470.732600526455     IErMin= 5 ErrMin= 1.50D-04
 ErrMax= 1.50D-04  0.00D+00 EMaxC= 1.00D-01 BMatC= 6.80D-06 BMatP= 6.53D-05
 IDIUse=3 WtCom= 9.99D-01 WtEn= 1.50D-03
 Coeff-Com:  0.220D-02-0.127D-01-0.837D-01 0.190D+00 0.904D+00
 Coeff-En:   0.000D+00 0.000D+00 0.000D+00 0.000D+00 0.100D+01
 Coeff:      0.220D-02-0.127D-01-0.836D-01 0.190D+00 0.904D+00
 Gap=     0.662 Goal=   None    Shift=    0.000
 RMSDP=1.60D-05 MaxDP=3.90D-04 DE=-1.08D-04 OVMax= 4.98D-04

 Cycle   6  Pass 1  IDiag  1:
 E= -470.732610012563     Delta-E=       -0.000009486108 Rises=F Damp=F
 DIIS: error= 2.63D-05 at cycle   6 NSaved=   6.
 NSaved= 6 IEnMin= 6 EnMin= -470.732610012563     IErMin= 6 ErrMin= 2.63D-05
 ErrMax= 2.63D-05  0.00D+00 EMaxC= 1.00D-01 BMatC= 1.45D-07 BMatP= 6.80D-06
 IDIUse=1 WtCom= 1.00D+00 WtEn= 0.00D+00
 Coeff-Com:  0.144D-03-0.315D-03-0.347D-02-0.316D-01 0.630D-01 0.972D+00
 Coeff:      0.144D-03-0.315D-03-0.347D-02-0.316D-01 0.630D-01 0.972D+00
 Gap=     0.662 Goal=   None    Shift=    0.000
 RMSDP=3.35D-06 MaxDP=6.99D-05 DE=-9.49D-06 OVMax= 9.98D-05

 Cycle   7  Pass 1  IDiag  1:
 E= -470.732610257043     Delta-E=       -0.000000244480 Rises=F Damp=F
 DIIS: error= 3.39D-06 at cycle   7 NSaved=   7.
 NSaved= 7 IEnMin= 7 EnMin= -470.732610257043     IErMin= 7 ErrMin= 3.39D-06
 ErrMax= 3.39D-06  0.00D+00 EMaxC= 1.00D-01 BMatC= 5.39D-09 BMatP= 1.45D-07
 IDIUse=1 WtCom= 1.00D+00 WtEn= 0.00D+00
 Coeff-Com: -0.528D-04 0.343D-03 0.233D-02-0.710D-02-0.237D-01 0.254D-01
 Coeff-Com:  0.100D+01
 Coeff:     -0.528D-04 0.343D-03 0.233D-02-0.710D-02-0.237D-01 0.254D-01
 Coeff:      0.100D+01
 Gap=     0.662 Goal=   None    Shift=    0.000
 RMSDP=7.06D-07 MaxDP=1.35D-05 DE=-2.44D-07 OVMax= 2.28D-05

 Cycle   8  Pass 1  IDiag  1:
 E= -470.732610266277     Delta-E=       -0.000000009234 Rises=F Damp=F
 DIIS: error= 1.77D-06 at cycle   8 NSaved=   8.
 NSaved= 8 IEnMin= 8 EnMin= -470.732610266277     IErMin= 8 ErrMin= 1.77D-06
 ErrMax= 1.77D-06  0.00D+00 EMaxC= 1.00D-01 BMatC= 5.91D-10 BMatP= 5.39D-09
 IDIUse=1 WtCom= 1.00D+00 WtEn= 0.00D+00
 Coeff-Com: -0.161D-04 0.657D-04 0.553D-03 0.126D-02-0.718D-02-0.661D-01
 Coeff-Com:  0.143D+00 0.928D+00
 Coeff:     -0.161D-04 0.657D-04 0.553D-03 0.126D-02-0.718D-02-0.661D-01
 Coeff:      0.143D+00 0.928D+00
 Gap=     0.662 Goal=   None    Shift=    0.000
 RMSDP=1.95D-07 MaxDP=3.62D-06 DE=-9.23D-09 OVMax= 7.16D-06

 Cycle   9  Pass 1  IDiag  1:
 E= -470.732610267239     Delta-E=       -0.000000000962 Rises=F Damp=F
 DIIS: error= 3.81D-07 at cycle   9 NSaved=   9.
 NSaved= 9 IEnMin= 9 EnMin= -470.732610267239     IErMin= 9 ErrMin= 3.81D-07
 ErrMax= 3.81D-07  0.00D+00 EMaxC= 1.00D-01 BMatC= 3.50D-11 BMatP= 5.91D-10
 IDIUse=1 WtCom= 1.00D+00 WtEn= 0.00D+00
 Coeff-Com:  0.502D-05-0.309D-04-0.217D-03 0.434D-03 0.249D-02 0.330D-02
 Coeff-Com: -0.870D-01-0.733D-01 0.115D+01
 Coeff:      0.502D-05-0.309D-04-0.217D-03 0.434D-03 0.249D-02 0.330D-02
 Coeff:     -0.870D-01-0.733D-01 0.115D+01
 Gap=     0.662 Goal=   None    Shift=    0.000
 RMSDP=6.92D-08 MaxDP=1.18D-06 DE=-9.62D-10 OVMax= 2.04D-06

 Cycle  10  Pass 1  IDiag  1:
 E= -470.732610267314     Delta-E=       -0.000000000075 Rises=F Damp=F
 DIIS: error= 6.55D-08 at cycle  10 NSaved=  10.
 NSaved=10 IEnMin=10 EnMin= -470.732610267314     IErMin=10 ErrMin= 6.55D-08
 ErrMax= 6.55D-08  0.00D+00 EMaxC= 1.00D-01 BMatC= 1.34D-12 BMatP= 3.50D-11
 IDIUse=1 WtCom= 1.00D+00 WtEn= 0.00D+00
 Coeff-Com:  0.333D-06-0.519D-06-0.949D-05-0.123D-03 0.167D-03 0.361D-02
 Coeff-Com:  0.627D-03-0.486D-01-0.110D+00 0.115D+01
 Coeff:      0.333D-06-0.519D-06-0.949D-05-0.123D-03 0.167D-03 0.361D-02
 Coeff:      0.627D-03-0.486D-01-0.110D+00 0.115D+01
 Gap=     0.662 Goal=   None    Shift=    0.000
 RMSDP=1.37D-08 MaxDP=2.79D-07 DE=-7.48D-11 OVMax= 4.79D-07

 Cycle  11  Pass 1  IDiag  1:
 E= -470.732610267319     Delta-E=       -0.000000000005 Rises=F Damp=F
 DIIS: error= 7.93D-09 at cycle  11 NSaved=  11.
 NSaved=11 IEnMin=11 EnMin= -470.732610267319     IErMin=11 ErrMin= 7.93D-09
 ErrMax= 7.93D-09  0.00D+00 EMaxC= 1.00D-01 BMatC= 3.33D-14 BMatP= 1.34D-12
 IDIUse=1 WtCom= 1.00D+00 WtEn= 0.00D+00
 Coeff-Com: -0.182D-06 0.924D-06 0.706D-05 0.152D-04-0.989D-04-0.822D-03
 Coeff-Com:  0.200D-02 0.116D-01-0.229D-02-0.256D+00 0.125D+01
 Coeff:     -0.182D-06 0.924D-06 0.706D-05 0.152D-04-0.989D-04-0.822D-03
 Coeff:      0.200D-02 0.116D-01-0.229D-02-0.256D+00 0.125D+01
 Gap=     0.662 Goal=   None    Shift=    0.000
 RMSDP=1.82D-09 MaxDP=3.59D-08 DE=-5.23D-12 OVMax= 5.68D-08

 SCF Done:  E(RHF) =  -470.732610267     A.U. after   11 cycles
            NFock= 11  Conv=0.18D-08     -V/T= 2.0011
 KE= 4.702295488857D+02 PE=-2.392876740487D+03 EE= 8.020711699385D+02
 Leave Link  502 at Wed May  5 15:01:58 2021, MaxMem=   524288000 cpu:              13.7 elap:               9.7
 (Enter /opt/gaussian/g16_legacy/l801.exe)
 ExpMin= 1.61D-01 ExpMax= 3.05D+03 ExpMxC= 4.57D+02 IAcc=3 IRadAn=         5 AccDes= 0.00D+00
 HarFok:  IExCor=  205 AccDes= 0.00D+00 IRadAn=         5 IDoV=-2 UseB2=F ITyADJ=14
 ICtDFT= 12500011 ScaDFX=  1.000000  1.000000  1.000000  1.000000
 Largest valence mixing into a core orbital is  1.98D-04
 Largest core mixing into a valence orbital is  3.31D-05
 Range of M.O.s used for correlation:    13   236
 NBasis=   236 NAE=    50 NBE=    50 NFC=    12 NFV=     0
 NROrb=    224 NOA=    38 NOB=    38 NVA=   186 NVB=   186
 Leave Link  801 at Wed May  5 15:01:59 2021, MaxMem=   524288000 cpu:               1.3 elap:               0.9
 (Enter /opt/gaussian/g16_legacy/l906.exe)
 FulOut=F Deriv=F AODrv=F NAtomX=    40
   MMem=         154  MDisk=          38 MDiskD=          38
  W3Min=     1668048 MinDsk=     1838182 NBas6D=         236
 NBas2D=       28290    NTT=       27966    LW2=     2000000
    MDV=   523975576 MDiskM=       30718 NBas2p=       16798
 Fully direct method using O(OVN) memory.
 IMap=   1   2   3   4   5   6   7   8   9  10  11  12  13  14  15  16  17  18  19  20
 IMap=  21  22  23  24  25  26  27  28  29  30  31  32  33  34  35  36  37  38
 JobTyp=1 Pass  1:  I=   1 to  38 NPSUse=  2 ParTrn=T ParDer=T DoDerP=F.
 Spin components of T(2) and E(2):
     alpha-alpha T2 =       0.6273945462D-01 E2=     -0.1841510793D+00
     alpha-beta  T2 =       0.4041530677D+00 E2=     -0.1214264441D+01
     beta-beta   T2 =       0.6273945462D-01 E2=     -0.1841510793D+00
 The integrals were generated   1 times.
 ANorm=    0.1236782914D+01
 E2 =    -0.1582566600D+01 EUMP2 =    -0.47231517686724D+03
 Leave Link  906 at Wed May  5 15:02:27 2021, MaxMem=   524288000 cpu:              56.1 elap:              28.2
 (Enter /opt/gaussian/g16_legacy/l601.exe)
 Copying SCF densities to generalized density rwf, IOpCl= 0 IROHF=0.

 **********************************************************************

            Population analysis using the SCF density.

 **********************************************************************

 Orbital symmetries:
       Occupied  (A) (A) (A) (A) (A) (A) (A) (A) (A) (A) (A) (A)
                 (A) (A) (A) (A) (A) (A) (A) (A) (A) (A) (A) (A)
                 (A) (A) (A) (A) (A) (A) (A) (A) (A) (A) (A) (A)
                 (A) (A) (A) (A) (A) (A) (A) (A) (A) (A) (A) (A)
                 (A) (A)
       Virtual   (A) (A) (A) (A) (A) (A) (A) (A) (A) (A) (A) (A)
                 (A) (A) (A) (A) (A) (A) (A) (A) (A) (A) (A) (A)
                 (A) (A) (A) (A) (A) (A) (A) (A) (A) (A) (A) (A)
                 (A) (A) (A) (A) (A) (A) (A) (A) (A) (A) (A) (A)
                 (A) (A) (A) (A) (A) (A) (A) (A) (A) (A) (A) (A)
                 (A) (A) (A) (A) (A) (A) (A) (A) (A) (A) (A) (A)
                 (A) (A) (A) (A) (A) (A) (A) (A) (A) (A) (A) (A)
                 (A) (A) (A) (A) (A) (A) (A) (A) (A) (A) (A) (A)
                 (A) (A) (A) (A) (A) (A) (A) (A) (A) (A) (A) (A)
                 (A) (A) (A) (A) (A) (A) (A) (A) (A) (A) (A) (A)
                 (A) (A) (A) (A) (A) (A) (A) (A) (A) (A) (A) (A)
                 (A) (A) (A) (A) (A) (A) (A) (A) (A) (A) (A) (A)
                 (A) (A) (A) (A) (A) (A) (A) (A) (A) (A) (A) (A)
                 (A) (A) (A) (A) (A) (A) (A) (A) (A) (A) (A) (A)
                 (A) (A) (A) (A) (A) (A) (A) (A) (A) (A) (A) (A)
                 (A) (A) (A) (A) (A) (A)
 The electronic state is 1-A.
 Alpha  occ. eigenvalues --  -11.21592 -11.21574 -11.21532 -11.21503 -11.21384
 Alpha  occ. eigenvalues --  -11.21358 -11.21325 -11.21297 -11.21064 -11.21050
 Alpha  occ. eigenvalues --  -11.20959 -11.20890  -1.08405  -1.08373  -1.03520
 Alpha  occ. eigenvalues --   -1.03440  -0.96020  -0.95841  -0.87103  -0.86794
 Alpha  occ. eigenvalues --   -0.79696  -0.79398  -0.78239  -0.78164  -0.65039
 Alpha  occ. eigenvalues --   -0.65004  -0.60933  -0.60834  -0.59332  -0.59262
 Alpha  occ. eigenvalues --   -0.57654  -0.57453  -0.55322  -0.55129  -0.52849
 Alpha  occ. eigenvalues --   -0.52524  -0.52517  -0.52076  -0.49980  -0.49753
 Alpha  occ. eigenvalues --   -0.48042  -0.47658  -0.46638  -0.46494  -0.45826
 Alpha  occ. eigenvalues --   -0.45691  -0.45673  -0.45581  -0.43799  -0.43659
 Alpha virt. eigenvalues --    0.22562   0.23007   0.23653   0.24826   0.26379
 Alpha virt. eigenvalues --    0.26661   0.26782   0.27591   0.27624   0.29375
 Alpha virt. eigenvalues --    0.31048   0.31287   0.31429   0.32027   0.32210
 Alpha virt. eigenvalues --    0.32447   0.33208   0.33957   0.34313   0.34713
 Alpha virt. eigenvalues --    0.34770   0.34813   0.34970   0.36137   0.36290
 Alpha virt. eigenvalues --    0.36454   0.36519   0.38022   0.38818   0.39822
 Alpha virt. eigenvalues --    0.40353   0.41241   0.43954   0.45372   0.45521
 Alpha virt. eigenvalues --    0.47383   0.47710   0.50593   0.67126   0.69342
 Alpha virt. eigenvalues --    0.69587   0.70838   0.71291   0.74347   0.75150
 Alpha virt. eigenvalues --    0.75358   0.76412   0.76724   0.77955   0.78324
 Alpha virt. eigenvalues --    0.80268   0.81474   0.82993   0.86327   0.86770
 Alpha virt. eigenvalues --    0.87802   0.87909   0.90016   0.95275   0.95934
 Alpha virt. eigenvalues --    0.96328   0.97359   0.98033   1.01262   1.01771
 Alpha virt. eigenvalues --    1.02852   1.05390   1.06177   1.07314   1.10520
 Alpha virt. eigenvalues --    1.10762   1.10951   1.11803   1.11841   1.16000
 Alpha virt. eigenvalues --    1.16039   1.16742   1.16887   1.17656   1.17802
 Alpha virt. eigenvalues --    1.18831   1.19501   1.19870   1.20434   1.20627
 Alpha virt. eigenvalues --    1.20834   1.21035   1.21059   1.21428   1.21761
 Alpha virt. eigenvalues --    1.21848   1.21961   1.22429   1.22806   1.23456
 Alpha virt. eigenvalues --    1.24420   1.24510   1.25470   1.26309   1.27101
 Alpha virt. eigenvalues --    1.27800   1.33307   1.40257   1.41077   1.55437
 Alpha virt. eigenvalues --    1.56012   1.65719   1.66480   1.67341   1.67483
 Alpha virt. eigenvalues --    1.71121   1.71365   1.72827   1.72922   1.79492
 Alpha virt. eigenvalues --    1.79797   1.81261   1.81563   1.92744   1.92783
 Alpha virt. eigenvalues --    2.05162   2.05211   2.13091   2.13517   2.14674
 Alpha virt. eigenvalues --    2.15549   2.17853   2.17915   2.22437   2.22617
 Alpha virt. eigenvalues --    2.25599   2.25694   2.25805   2.25867   2.27448
 Alpha virt. eigenvalues --    2.28871   2.32799   2.32866   2.33977   2.34029
 Alpha virt. eigenvalues --    2.35835   2.36997   2.39493   2.40288   2.43113
 Alpha virt. eigenvalues --    2.43158   2.56647   2.56838   2.56954   2.57260
 Alpha virt. eigenvalues --    2.59639   2.59824   2.66786   2.67189   2.67746
 Alpha virt. eigenvalues --    2.67769   2.67995   2.68277   2.76957   2.77061
 Alpha virt. eigenvalues --    2.77523   2.77783   2.79885   2.81031   2.91148
 Alpha virt. eigenvalues --    2.92195   2.94881   2.95369   2.98101   3.01818
 Alpha virt. eigenvalues --    3.13516   3.15558   3.18583   3.19538   4.55115
 Alpha virt. eigenvalues --    4.55698   4.61882   4.63019   4.71662   4.72697
 Alpha virt. eigenvalues --    4.79665   4.80153   4.87796   4.87901   4.99684
 Alpha virt. eigenvalues --    4.99758
          Condensed to atoms (all electrons):
               1          2          3          4          5          6
     1  C    5.083908   0.352246  -0.057364   0.396138   0.396120  -0.043652
     2  C    0.352246   5.060529   0.340667  -0.041827  -0.041897   0.399092
     3  C   -0.057364   0.340667   5.097362  -0.002859  -0.002864  -0.039894
     4  H    0.396138  -0.041827  -0.002859   0.566709  -0.031507  -0.002977
     5  H    0.396120  -0.041897  -0.002864  -0.031507   0.567017   0.004573
     6  H   -0.043652   0.399092  -0.039894  -0.002977   0.004573   0.564486
     7  H   -0.043634   0.399101  -0.039894   0.004567  -0.002989  -0.031673
     8  H   -0.003793  -0.038899   0.391275   0.000158   0.002626   0.004221
     9  H   -0.003794  -0.038897   0.391279   0.002624   0.000158  -0.002893
    10  H    0.004401  -0.035844   0.394092  -0.000059  -0.000059  -0.002506
    11  C    0.355624  -0.051908   0.004074  -0.041644  -0.041710  -0.003198
    12  C   -0.051984   0.003977  -0.000085  -0.003243  -0.003254  -0.000065
    13  C    0.004032  -0.000083   0.000001  -0.000052  -0.000051  -0.000000
    14  H   -0.041723  -0.003270  -0.000052  -0.002809   0.004474   0.002411
    15  H   -0.041671  -0.003254  -0.000052   0.004466  -0.002809   0.000237
    16  H   -0.003242  -0.000065  -0.000000   0.002403   0.000237   0.000017
    17  H   -0.003231  -0.000065  -0.000000   0.000237   0.002410  -0.000003
    18  H   -0.000068  -0.000001   0.000000  -0.000001   0.000013   0.000000
    19  H   -0.000070  -0.000001  -0.000000   0.000013  -0.000001  -0.000002
    20  H   -0.000087   0.000001  -0.000000   0.000001   0.000001   0.000000
    21  C    0.000000  -0.000000   0.000000  -0.000000   0.000000   0.000000
    22  C   -0.000000   0.000000  -0.000000  -0.000000   0.000000  -0.000000
    23  C    0.000000   0.000000  -0.000000  -0.000000  -0.000000  -0.000000
    24  H    0.000000  -0.000000   0.000000  -0.000000   0.000000   0.000000
    25  H    0.000000  -0.000000   0.000000  -0.000000  -0.000000   0.000000
    26  H    0.000000  -0.000000   0.000000  -0.000000   0.000000   0.000000
    27  H    0.000000  -0.000000   0.000000  -0.000000  -0.000000   0.000000
    28  H   -0.000000   0.000000  -0.000000   0.000000   0.000000   0.000000
    29  H   -0.000000  -0.000000   0.000000   0.000000   0.000000  -0.000000
    30  H   -0.000000   0.000000  -0.000000  -0.000000   0.000000  -0.000000
    31  C   -0.000000   0.000000  -0.000000   0.000000   0.000000  -0.000000
    32  C    0.000000  -0.000000   0.000000  -0.000000  -0.000000  -0.000000
    33  C   -0.000000   0.000000   0.000000   0.000000   0.000000  -0.000000
    34  H    0.000000  -0.000000   0.000000  -0.000000  -0.000000   0.000000
    35  H   -0.000000  -0.000000   0.000000  -0.000000   0.000000   0.000000
    36  H   -0.000000   0.000000  -0.000000   0.000000   0.000000   0.000000
    37  H   -0.000000   0.000000   0.000000  -0.000000  -0.000000  -0.000000
    38  H    0.000000   0.000000   0.000000   0.000000   0.000000   0.000000
    39  H   -0.000000   0.000000   0.000000   0.000000   0.000000  -0.000000
    40  H    0.000000   0.000000   0.000000   0.000000   0.000000   0.000000
               7          8          9         10         11         12
     1  C   -0.043634  -0.003793  -0.003794   0.004401   0.355624  -0.051984
     2  C    0.399101  -0.038899  -0.038897  -0.035844  -0.051908   0.003977
     3  C   -0.039894   0.391275   0.391279   0.394092   0.004074  -0.000085
     4  H    0.004567   0.000158   0.002624  -0.000059  -0.041644  -0.003243
     5  H   -0.002989   0.002626   0.000158  -0.000059  -0.041710  -0.003254
     6  H   -0.031673   0.004221  -0.002893  -0.002506  -0.003198  -0.000065
     7  H    0.564495  -0.002893   0.004221  -0.002506  -0.003194  -0.000065
     8  H   -0.002893   0.548831  -0.029142  -0.027500  -0.000070  -0.000001
     9  H    0.004221  -0.029142   0.548818  -0.027499  -0.000070  -0.000001
    10  H   -0.002506  -0.027500  -0.027499   0.537389  -0.000087   0.000001
    11  C   -0.003194  -0.000070  -0.000070  -0.000087   5.084115   0.352176
    12  C   -0.000065  -0.000001  -0.000001   0.000001   0.352176   5.065420
    13  C   -0.000000  -0.000000  -0.000000  -0.000000  -0.057386   0.339043
    14  H    0.000237  -0.000001   0.000013   0.000001   0.396015  -0.041949
    15  H    0.002406   0.000013  -0.000001   0.000001   0.395985  -0.041882
    16  H   -0.000003   0.000000  -0.000002   0.000000  -0.043632   0.398437
    17  H    0.000017  -0.000002   0.000000   0.000000  -0.043676   0.398604
    18  H   -0.000002   0.000000  -0.000000  -0.000000  -0.003773  -0.039284
    19  H    0.000000  -0.000000   0.000000  -0.000000  -0.003785  -0.039257
    20  H    0.000000  -0.000000  -0.000000   0.000000   0.004391  -0.035651
    21  C    0.000000  -0.000000   0.000000  -0.000000  -0.000000   0.000000
    22  C   -0.000000  -0.000000  -0.000000   0.000000   0.000000  -0.000000
    23  C    0.000000  -0.000000   0.000000   0.000000   0.000001   0.000035
    24  H   -0.000000   0.000000   0.000000  -0.000000   0.000000   0.000000
    25  H   -0.000000  -0.000000  -0.000000  -0.000000  -0.000000   0.000000
    26  H   -0.000000  -0.000000  -0.000000  -0.000000  -0.000000   0.000000
    27  H    0.000000   0.000000   0.000000  -0.000000   0.000000   0.000000
    28  H   -0.000000  -0.000000  -0.000000   0.000000  -0.000000  -0.000001
    29  H    0.000000  -0.000000   0.000000  -0.000000  -0.000001   0.000034
    30  H    0.000000  -0.000000  -0.000000   0.000000   0.000000  -0.000004
    31  C    0.000000   0.000000   0.000000   0.000000   0.000000  -0.000000
    32  C    0.000000   0.000000   0.000000   0.000000  -0.000000   0.000000
    33  C   -0.000000   0.000000   0.000000   0.000000   0.000000  -0.000000
    34  H    0.000000  -0.000000   0.000000   0.000000   0.000000   0.000000
    35  H   -0.000000   0.000000   0.000000   0.000000  -0.000000  -0.000000
    36  H   -0.000000  -0.000000  -0.000000   0.000000  -0.000000  -0.000000
    37  H   -0.000000   0.000000   0.000000   0.000000   0.000000  -0.000000
    38  H    0.000000   0.000000   0.000000   0.000000  -0.000000  -0.000000
    39  H   -0.000000   0.000000   0.000000   0.000000   0.000000  -0.000000
    40  H    0.000000   0.000000   0.000000   0.000000  -0.000000   0.000000
              13         14         15         16         17         18
     1  C    0.004032  -0.041723  -0.041671  -0.003242  -0.003231  -0.000068
     2  C   -0.000083  -0.003270  -0.003254  -0.000065  -0.000065  -0.000001
     3  C    0.000001  -0.000052  -0.000052  -0.000000  -0.000000   0.000000
     4  H   -0.000052  -0.002809   0.004466   0.002403   0.000237  -0.000001
     5  H   -0.000051   0.004474  -0.002809   0.000237   0.002410   0.000013
     6  H   -0.000000   0.002411   0.000237   0.000017  -0.000003   0.000000
     7  H   -0.000000   0.000237   0.002406  -0.000003   0.000017  -0.000002
     8  H   -0.000000  -0.000001   0.000013   0.000000  -0.000002   0.000000
     9  H   -0.000000   0.000013  -0.000001  -0.000002   0.000000  -0.000000
    10  H   -0.000000   0.000001   0.000001   0.000000   0.000000  -0.000000
    11  C   -0.057386   0.396015   0.395985  -0.043632  -0.043676  -0.003773
    12  C    0.339043  -0.041949  -0.041882   0.398437   0.398604  -0.039284
    13  C    5.097143  -0.002778  -0.002786  -0.039327  -0.039390   0.392812
    14  H   -0.002778   0.567520  -0.031574  -0.002986   0.004581   0.000148
    15  H   -0.002786  -0.031574   0.567398   0.004580  -0.002973   0.002634
    16  H   -0.039327  -0.002986   0.004580   0.565069  -0.031647   0.004195
    17  H   -0.039390   0.004581  -0.002973  -0.031647   0.564904  -0.002985
    18  H    0.392812   0.000148   0.002634   0.004195  -0.002985   0.546522
    19  H    0.391979   0.002632   0.000156  -0.002948   0.004220  -0.030066
    20  H    0.393874  -0.000059  -0.000059  -0.002511  -0.002509  -0.027173
    21  C   -0.000001   0.000000  -0.000000  -0.000000   0.000000   0.000000
    22  C    0.000029   0.000000   0.000000   0.000000   0.000000   0.000011
    23  C   -0.001739  -0.000000  -0.000001  -0.000001  -0.000001  -0.000633
    24  H   -0.000002  -0.000000   0.000000  -0.000000   0.000000  -0.000002
    25  H   -0.000000  -0.000000  -0.000000   0.000000  -0.000000   0.000000
    26  H    0.000001  -0.000000   0.000000   0.000000  -0.000000   0.000001
    27  H   -0.000001  -0.000000  -0.000000  -0.000000  -0.000000  -0.000001
    28  H    0.000184  -0.000000   0.000000   0.000000   0.000000  -0.000045
    29  H   -0.000949   0.000001   0.000001  -0.000001   0.000000   0.000218
    30  H    0.000021   0.000000  -0.000000   0.000000   0.000000   0.000286
    31  C    0.000000   0.000000   0.000000   0.000000  -0.000000  -0.000000
    32  C    0.000000   0.000000  -0.000000  -0.000000   0.000000   0.000000
    33  C   -0.000000   0.000000   0.000000   0.000000  -0.000000  -0.000000
    34  H   -0.000000  -0.000000  -0.000000  -0.000000  -0.000000   0.000000
    35  H   -0.000000  -0.000000   0.000000   0.000000   0.000000  -0.000000
    36  H    0.000000   0.000000   0.000000   0.000000   0.000000   0.000000
    37  H   -0.000000  -0.000000  -0.000000  -0.000000  -0.000000  -0.000000
    38  H    0.000000   0.000000   0.000000   0.000000   0.000000   0.000000
    39  H   -0.000000   0.000000   0.000000   0.000000   0.000000  -0.000000
    40  H    0.000000   0.000000  -0.000000  -0.000000   0.000000   0.000000
              19         20         21         22         23         24
     1  C   -0.000070  -0.000087   0.000000  -0.000000   0.000000   0.000000
     2  C   -0.000001   0.000001  -0.000000   0.000000   0.000000  -0.000000
     3  C   -0.000000  -0.000000   0.000000  -0.000000  -0.000000   0.000000
     4  H    0.000013   0.000001  -0.000000  -0.000000  -0.000000  -0.000000
     5  H   -0.000001   0.000001   0.000000   0.000000  -0.000000   0.000000
     6  H   -0.000002   0.000000   0.000000  -0.000000  -0.000000   0.000000
     7  H    0.000000   0.000000   0.000000  -0.000000   0.000000  -0.000000
     8  H   -0.000000  -0.000000  -0.000000  -0.000000  -0.000000   0.000000
     9  H    0.000000  -0.000000   0.000000  -0.000000   0.000000   0.000000
    10  H   -0.000000   0.000000  -0.000000   0.000000   0.000000  -0.000000
    11  C   -0.003785   0.004391  -0.000000   0.000000   0.000001   0.000000
    12  C   -0.039257  -0.035651   0.000000  -0.000000   0.000035   0.000000
    13  C    0.391979   0.393874  -0.000001   0.000029  -0.001739  -0.000002
    14  H    0.002632  -0.000059   0.000000   0.000000  -0.000000  -0.000000
    15  H    0.000156  -0.000059  -0.000000   0.000000  -0.000001   0.000000
    16  H   -0.002948  -0.002511  -0.000000   0.000000  -0.000001  -0.000000
    17  H    0.004220  -0.002509   0.000000   0.000000  -0.000001   0.000000
    18  H   -0.030066  -0.027173   0.000000   0.000011  -0.000633  -0.000002
    19  H    0.549047  -0.027268   0.000002  -0.000008  -0.000184   0.000003
    20  H   -0.027268   0.536076   0.000000   0.000000   0.000280   0.000000
    21  C    0.000002   0.000000   5.084019   0.352102  -0.057121   0.395993
    22  C   -0.000008   0.000000   0.352102   5.064791   0.338672  -0.041765
    23  C   -0.000184   0.000280  -0.057121   0.338672   5.099385  -0.002886
    24  H    0.000003   0.000000   0.395993  -0.041765  -0.002886   0.567107
    25  H    0.000000  -0.000000   0.396080  -0.041897  -0.002812  -0.031537
    26  H    0.000000   0.000000  -0.043724   0.398860  -0.039717  -0.002978
    27  H    0.000000   0.000000  -0.043642   0.398512  -0.039459   0.004580
    28  H    0.000087   0.000069  -0.003817  -0.039002   0.391337   0.000156
    29  H    0.000484  -0.000162  -0.003831  -0.038999   0.393086   0.002688
    30  H   -0.000010   0.000046   0.004414  -0.036042   0.394328  -0.000058
    31  C   -0.000000  -0.000000   0.355554  -0.051989   0.004041  -0.041690
    32  C    0.000000   0.000000  -0.051913   0.003977  -0.000083  -0.003248
    33  C   -0.000000  -0.000000   0.004073  -0.000085   0.000001  -0.000052
    34  H    0.000000   0.000000  -0.041699  -0.003256  -0.000051  -0.002807
    35  H    0.000000   0.000000  -0.041639  -0.003243  -0.000054   0.004465
    36  H    0.000000  -0.000000  -0.003187  -0.000065  -0.000000   0.002406
    37  H   -0.000000   0.000000  -0.003194  -0.000065  -0.000000   0.000237
    38  H    0.000000  -0.000000  -0.000070  -0.000001  -0.000000  -0.000001
    39  H   -0.000000  -0.000000  -0.000070  -0.000001  -0.000000   0.000013
    40  H    0.000000   0.000000  -0.000087   0.000001  -0.000000   0.000001
              25         26         27         28         29         30
     1  C    0.000000   0.000000   0.000000  -0.000000  -0.000000  -0.000000
     2  C   -0.000000  -0.000000  -0.000000   0.000000  -0.000000   0.000000
     3  C    0.000000   0.000000   0.000000  -0.000000   0.000000  -0.000000
     4  H   -0.000000  -0.000000  -0.000000   0.000000   0.000000  -0.000000
     5  H   -0.000000   0.000000  -0.000000   0.000000   0.000000   0.000000
     6  H    0.000000   0.000000   0.000000   0.000000  -0.000000  -0.000000
     7  H   -0.000000  -0.000000   0.000000  -0.000000   0.000000   0.000000
     8  H   -0.000000  -0.000000   0.000000  -0.000000  -0.000000  -0.000000
     9  H   -0.000000  -0.000000   0.000000  -0.000000   0.000000  -0.000000
    10  H   -0.000000  -0.000000  -0.000000   0.000000  -0.000000   0.000000
    11  C   -0.000000  -0.000000   0.000000  -0.000000  -0.000001   0.000000
    12  C    0.000000   0.000000   0.000000  -0.000001   0.000034  -0.000004
    13  C   -0.000000   0.000001  -0.000001   0.000184  -0.000949   0.000021
    14  H   -0.000000  -0.000000  -0.000000  -0.000000   0.000001   0.000000
    15  H   -0.000000   0.000000  -0.000000   0.000000   0.000001  -0.000000
    16  H    0.000000   0.000000  -0.000000   0.000000  -0.000001   0.000000
    17  H   -0.000000  -0.000000  -0.000000   0.000000   0.000000   0.000000
    18  H    0.000000   0.000001  -0.000001  -0.000045   0.000218   0.000286
    19  H    0.000000   0.000000   0.000000   0.000087   0.000484  -0.000010
    20  H   -0.000000   0.000000   0.000000   0.000069  -0.000162   0.000046
    21  C    0.396080  -0.043724  -0.043642  -0.003817  -0.003831   0.004414
    22  C   -0.041897   0.398860   0.398512  -0.039002  -0.038999  -0.036042
    23  C   -0.002812  -0.039717  -0.039459   0.391337   0.393086   0.394328
    24  H   -0.031537  -0.002978   0.004580   0.000156   0.002688  -0.000058
    25  H    0.567305   0.004581  -0.002989   0.002633   0.000145  -0.000059
    26  H    0.004581   0.565412  -0.031730   0.004229  -0.002928  -0.002505
    27  H   -0.002989  -0.031730   0.565494  -0.002910   0.004172  -0.002534
    28  H    0.002633   0.004229  -0.002910   0.549129  -0.029072  -0.027454
    29  H    0.000145  -0.002928   0.004172  -0.029072   0.542358  -0.027951
    30  H   -0.000059  -0.002505  -0.002534  -0.027454  -0.027951   0.538544
    31  C   -0.041754  -0.003220  -0.003242  -0.000069  -0.000064  -0.000088
    32  C   -0.003269  -0.000065  -0.000065  -0.000001  -0.000001   0.000001
    33  C   -0.000052  -0.000000  -0.000000  -0.000000   0.000000  -0.000000
    34  H    0.004474   0.002411   0.000238  -0.000001   0.000013   0.000001
    35  H   -0.002808   0.000237   0.002403   0.000013  -0.000001   0.000001
    36  H    0.000237   0.000017  -0.000003   0.000000  -0.000002   0.000000
    37  H    0.002411  -0.000003   0.000017  -0.000002   0.000000   0.000000
    38  H    0.000013   0.000000  -0.000002   0.000000  -0.000000  -0.000000
    39  H   -0.000001  -0.000002   0.000000  -0.000000   0.000000  -0.000000
    40  H    0.000001   0.000000   0.000000  -0.000000  -0.000000   0.000000
              31         32         33         34         35         36
     1  C   -0.000000   0.000000  -0.000000   0.000000  -0.000000  -0.000000
     2  C    0.000000  -0.000000   0.000000  -0.000000  -0.000000   0.000000
     3  C   -0.000000   0.000000   0.000000   0.000000   0.000000  -0.000000
     4  H    0.000000  -0.000000   0.000000  -0.000000  -0.000000   0.000000
     5  H    0.000000  -0.000000   0.000000  -0.000000   0.000000   0.000000
     6  H   -0.000000  -0.000000  -0.000000   0.000000   0.000000   0.000000
     7  H    0.000000   0.000000  -0.000000   0.000000  -0.000000  -0.000000
     8  H    0.000000   0.000000   0.000000  -0.000000   0.000000  -0.000000
     9  H    0.000000   0.000000   0.000000   0.000000   0.000000  -0.000000
    10  H    0.000000   0.000000   0.000000   0.000000   0.000000   0.000000
    11  C    0.000000  -0.000000   0.000000   0.000000  -0.000000  -0.000000
    12  C   -0.000000   0.000000  -0.000000   0.000000  -0.000000  -0.000000
    13  C    0.000000   0.000000  -0.000000  -0.000000  -0.000000   0.000000
    14  H    0.000000   0.000000   0.000000  -0.000000  -0.000000   0.000000
    15  H    0.000000  -0.000000   0.000000  -0.000000   0.000000   0.000000
    16  H    0.000000  -0.000000   0.000000  -0.000000   0.000000   0.000000
    17  H   -0.000000   0.000000  -0.000000  -0.000000   0.000000   0.000000
    18  H   -0.000000   0.000000  -0.000000   0.000000  -0.000000   0.000000
    19  H   -0.000000   0.000000  -0.000000   0.000000   0.000000   0.000000
    20  H   -0.000000   0.000000  -0.000000   0.000000   0.000000  -0.000000
    21  C    0.355554  -0.051913   0.004073  -0.041699  -0.041639  -0.003187
    22  C   -0.051989   0.003977  -0.000085  -0.003256  -0.003243  -0.000065
    23  C    0.004041  -0.000083   0.000001  -0.000051  -0.000054  -0.000000
    24  H   -0.041690  -0.003248  -0.000052  -0.002807   0.004465   0.002406
    25  H   -0.041754  -0.003269  -0.000052   0.004474  -0.002808   0.000237
    26  H   -0.003220  -0.000065  -0.000000   0.002411   0.000237   0.000017
    27  H   -0.003242  -0.000065  -0.000000   0.000238   0.002403  -0.000003
    28  H   -0.000069  -0.000001  -0.000000  -0.000001   0.000013   0.000000
    29  H   -0.000064  -0.000001   0.000000   0.000013  -0.000001  -0.000002
    30  H   -0.000088   0.000001  -0.000000   0.000001   0.000001   0.000000
    31  C    5.084038   0.352260  -0.057368   0.396083   0.396118  -0.043633
    32  C    0.352260   5.060521   0.340654  -0.041908  -0.041832   0.399104
    33  C   -0.057368   0.340654   5.097404  -0.002867  -0.002862  -0.039902
    34  H    0.396083  -0.041908  -0.002867   0.567198  -0.031522  -0.002990
    35  H    0.396118  -0.041832  -0.002862  -0.031522   0.566824   0.004568
    36  H   -0.043633   0.399104  -0.039902  -0.002990   0.004568   0.564481
    37  H   -0.043648   0.399096  -0.039903   0.004574  -0.002977  -0.031668
    38  H   -0.003792  -0.038896   0.391272   0.000158   0.002625   0.004221
    39  H   -0.003792  -0.038898   0.391266   0.002627   0.000158  -0.002893
    40  H    0.004401  -0.035845   0.394087  -0.000059  -0.000059  -0.002506
              37         38         39         40
     1  C   -0.000000   0.000000  -0.000000   0.000000
     2  C    0.000000   0.000000   0.000000   0.000000
     3  C    0.000000   0.000000   0.000000   0.000000
     4  H   -0.000000   0.000000   0.000000   0.000000
     5  H   -0.000000   0.000000   0.000000   0.000000
     6  H   -0.000000   0.000000  -0.000000   0.000000
     7  H   -0.000000   0.000000  -0.000000   0.000000
     8  H    0.000000   0.000000   0.000000   0.000000
     9  H    0.000000   0.000000   0.000000   0.000000
    10  H    0.000000   0.000000   0.000000   0.000000
    11  C    0.000000  -0.000000   0.000000  -0.000000
    12  C   -0.000000  -0.000000  -0.000000   0.000000
    13  C   -0.000000   0.000000  -0.000000   0.000000
    14  H   -0.000000   0.000000   0.000000   0.000000
    15  H   -0.000000   0.000000   0.000000  -0.000000
    16  H   -0.000000   0.000000   0.000000  -0.000000
    17  H   -0.000000   0.000000   0.000000   0.000000
    18  H   -0.000000   0.000000  -0.000000   0.000000
    19  H   -0.000000   0.000000  -0.000000   0.000000
    20  H    0.000000  -0.000000  -0.000000   0.000000
    21  C   -0.003194  -0.000070  -0.000070  -0.000087
    22  C   -0.000065  -0.000001  -0.000001   0.000001
    23  C   -0.000000  -0.000000  -0.000000  -0.000000
    24  H    0.000237  -0.000001   0.000013   0.000001
    25  H    0.002411   0.000013  -0.000001   0.000001
    26  H   -0.000003   0.000000  -0.000002   0.000000
    27  H    0.000017  -0.000002   0.000000   0.000000
    28  H   -0.000002   0.000000  -0.000000  -0.000000
    29  H    0.000000  -0.000000   0.000000  -0.000000
    30  H    0.000000  -0.000000  -0.000000   0.000000
    31  C   -0.043648  -0.003792  -0.003792   0.004401
    32  C    0.399096  -0.038896  -0.038898  -0.035845
    33  C   -0.039903   0.391272   0.391266   0.394087
    34  H    0.004574   0.000158   0.002627  -0.000059
    35  H   -0.002977   0.002625   0.000158  -0.000059
    36  H   -0.031668   0.004221  -0.002893  -0.002506
    37  H    0.564471  -0.002893   0.004222  -0.002506
    38  H   -0.002893   0.548873  -0.029147  -0.027505
    39  H    0.004222  -0.029147   0.548897  -0.027507
    40  H   -0.002506  -0.027505  -0.027507   0.537458
 Mulliken charges:
               1
     1  C   -0.298157
     2  C   -0.299604
     3  C   -0.475684
     4  H    0.149663
     5  H    0.149510
     6  H    0.151826
     7  H    0.151809
     8  H    0.155176
     9  H    0.155183
    10  H    0.160176
    11  C   -0.298247
    12  C   -0.301003
    13  C   -0.474571
    14  H    0.149168
    15  H    0.149186
    16  H    0.151427
    17  H    0.151507
    18  H    0.157194
    19  H    0.154975
    20  H    0.160741
    21  C   -0.298242
    22  C   -0.300536
    23  C   -0.476421
    24  H    0.149378
    25  H    0.149299
    26  H    0.151123
    27  H    0.151160
    28  H    0.154536
    29  H    0.160760
    30  H    0.159065
    31  C   -0.298145
    32  C   -0.299588
    33  C   -0.475665
    34  H    0.149381
    35  H    0.149584
    36  H    0.151813
    37  H    0.151830
    38  H    0.155143
    39  H    0.155127
    40  H    0.160126
 Sum of Mulliken charges =  -0.00000
 Mulliken charges with hydrogens summed into heavy atoms:
               1
     1  C    0.001016
     2  C    0.004031
     3  C   -0.005149
    11  C    0.000108
    12  C    0.001931
    13  C   -0.001662
    21  C    0.000435
    22  C    0.001746
    23  C   -0.002061
    31  C    0.000820
    32  C    0.004054
    33  C   -0.005269
 Electronic spatial extent (au):  <R**2>=           9057.6314
 Charge=             -0.0000 electrons
 Dipole moment (field-independent basis, Debye):
    X=              0.0179    Y=              0.0149    Z=             -0.0062  Tot=              0.0241
 Quadrupole moment (field-independent basis, Debye-Ang):
   XX=            -86.9624   YY=            -84.5874   ZZ=            -83.5565
   XY=             -0.4183   XZ=              0.5651   YZ=             -0.0041
 Traceless Quadrupole moment (field-independent basis, Debye-Ang):
   XX=             -1.9270   YY=              0.4480   ZZ=              1.4790
   XY=             -0.4183   XZ=              0.5651   YZ=             -0.0041
 Octapole moment (field-independent basis, Debye-Ang**2):
  XXX=             -5.0351  YYY=              0.0667  ZZZ=             -0.2376  XYY=             -0.9721
  XXY=             10.5665  XXZ=             -3.8218  XZZ=              3.0384  YZZ=             -0.1638
  YYZ=             -0.0370  XYZ=              2.7760
 Hexadecapole moment (field-independent basis, Debye-Ang**3):
 XXXX=         -11662.0704 YYYY=          -1194.1923 ZZZZ=           -258.6229 XXXY=            -28.6605
 XXXZ=             36.7462 YYYX=             -5.1789 YYYZ=              1.2304 ZZZX=             -1.8318
 ZZZY=             -2.4093 XXYY=          -2105.1397 XXZZ=          -1917.2463 YYZZ=           -241.2103
 XXYZ=              5.3505 YYXZ=              5.6855 ZZXY=              3.0735
 N-N= 6.498434113954D+02 E-N=-2.392876740654D+03  KE= 4.702295488857D+02
 Leave Link  601 at Wed May  5 15:02:27 2021, MaxMem=   524288000 cpu:               0.3 elap:               0.3
 (Enter /opt/gaussian/g16_legacy/l9999.exe)
 1\1\GINC-TRUENO93\SP\RMP2-FC\6-31G(d)\C12H28\JRAMOS\05-May-2021\0\\#p 
 6-31g* mp2\\Input file generated by CHIRIPA (05-May-2021 14:51:07)\\0,
 1\C,0,-0.666,-0.374,0.\C,0,-1.882,0.553,0.\C,0,-3.207,-0.21,0.\H,0,-0.
 713,-1.03,-0.88\H,0,-0.713,-1.029,0.881\H,0,-1.832,1.207,-0.88\H,0,-1.
 832,1.207,0.88\H,0,-3.283,-0.85,0.885\H,0,-3.283,-0.85,-0.885\H,0,-4.0
 63,0.472,0.\C,0,0.666,0.374,0.\C,0,1.882,-0.553,0.\C,0,3.207,0.21,0.\H
 ,0,0.713,1.029,-0.881\H,0,0.713,1.03,0.88\H,0,1.832,-1.207,-0.88\H,0,1
 .832,-1.207,0.88\H,0,3.283,0.85,0.885\H,0,3.283,0.85,-0.885\H,0,4.063,
 -0.472,0.\C,0,6.4585,4.773488,-0.506412\C,0,6.614083,3.90434,0.741931\
 C,0,5.962987,2.529304,0.5898\H,0,5.389761,4.894983,-0.729977\H,0,6.900
 2,4.250702,-1.366058\H,0,6.173452,4.429215,1.599233\H,0,7.682571,3.785
 059,0.962661\H,0,6.408538,1.98261,-0.247583\H,0,4.890845,2.630426,0.39
 2605\H,0,6.086135,1.924576,1.49368\C,0,7.104228,6.151195,-0.36971\C,0,
 6.948645,7.020343,-1.618053\C,0,7.599741,8.395379,-1.465922\H,0,6.6625
 28,6.673981,0.489936\H,0,8.172967,6.0297,-0.146145\H,0,5.880157,7.1396
 24,-1.838783\H,0,7.389276,6.495468,-2.475355\H,0,8.671883,8.294257,-1.
 268727\H,0,7.15419,8.942073,-0.628538\H,0,7.476593,9.000107,-2.369802\
 \Version=EM64L-G16RevA.03\State=1-A\HF=-470.7326103\MP2=-472.3151769\R
 MSD=1.821e-09\PG=C01 [X(C12H28)]\\@


 HEAVEN'S NET CASTS WIDE.
 THOUGH ITS MESHES ARE COARSE, NOTHING SLIPS THROUGH.

                                          -- LAO-TSU
 Job cpu time:       0 days  0 hours  1 minutes 20.8 seconds.
 Elapsed time:       0 days  0 hours  0 minutes 44.2 seconds.
 File lengths (MBytes):  RWF=     26 Int=      0 D2E=      0 Chk=      5 Scr=      1
 Normal termination of Gaussian 16 at Wed May  5 15:02:27 2021.
