 Entering Gaussian System, Link 0=/opt/gaussian/g16_legacy/g16
 Input=gaussian_01985_1_1.com
 Output=gaussian_01985_1_1.log
 Initial command:
 /opt/gaussian/g16_legacy/l1.exe "/scratch-local/jramos/2585144/Gau-19681.inp" -scrdir="/scratch-local/jramos/2585144/"
 Entering Link 1 = /opt/gaussian/g16_legacy/l1.exe PID=     19682.
  
 Copyright (c) 1988,1990,1992,1993,1995,1998,2003,2009,2016,
            Gaussian, Inc.  All Rights Reserved.
  
 This is part of the Gaussian(R) 16 program.  It is based on
 the Gaussian(R) 09 system (copyright 2009, Gaussian, Inc.),
 the Gaussian(R) 03 system (copyright 2003, Gaussian, Inc.),
 the Gaussian(R) 98 system (copyright 1998, Gaussian, Inc.),
 the Gaussian(R) 94 system (copyright 1995, Gaussian, Inc.),
 the Gaussian 92(TM) system (copyright 1992, Gaussian, Inc.),
 the Gaussian 90(TM) system (copyright 1990, Gaussian, Inc.),
 the Gaussian 88(TM) system (copyright 1988, Gaussian, Inc.),
 the Gaussian 86(TM) system (copyright 1986, Carnegie Mellon
 University), and the Gaussian 82(TM) system (copyright 1983,
 Carnegie Mellon University). Gaussian is a federally registered
 trademark of Gaussian, Inc.
  
 This software contains proprietary and confidential information,
 including trade secrets, belonging to Gaussian, Inc.
  
 This software is provided under written license and may be
 used, copied, transmitted, or stored only in accord with that
 written license.
  
 The following legend is applicable only to US Government
 contracts under FAR:
  
                    RESTRICTED RIGHTS LEGEND
  
 Use, reproduction and disclosure by the US Government is
 subject to restrictions as set forth in subparagraphs (a)
 and (c) of the Commercial Computer Software - Restricted
 Rights clause in FAR 52.227-19.
  
 Gaussian, Inc.
 340 Quinnipiac St., Bldg. 40, Wallingford CT 06492
  
  
 ---------------------------------------------------------------
 Warning -- This program may not be used in any manner that
 competes with the business of Gaussian, Inc. or will provide
 assistance to any competitor of Gaussian, Inc.  The licensee
 of this program is prohibited from giving any competitor of
 Gaussian, Inc. access to this program.  By using this program,
 the user acknowledges that Gaussian, Inc. is engaged in the
 business of creating and licensing software in the field of
 computational chemistry and represents and warrants to the
 licensee that it is not a competitor of Gaussian, Inc. and that
 it will not use this program in any manner prohibited above.
 ---------------------------------------------------------------
  

 Cite this work as:
 Gaussian 16, Revision A.03,
 M. J. Frisch, G. W. Trucks, H. B. Schlegel, G. E. Scuseria, 
 M. A. Robb, J. R. Cheeseman, G. Scalmani, V. Barone, 
 G. A. Petersson, H. Nakatsuji, X. Li, M. Caricato, A. V. Marenich, 
 J. Bloino, B. G. Janesko, R. Gomperts, B. Mennucci, H. P. Hratchian, 
 J. V. Ortiz, A. F. Izmaylov, J. L. Sonnenberg, D. Williams-Young, 
 F. Ding, F. Lipparini, F. Egidi, J. Goings, B. Peng, A. Petrone, 
 T. Henderson, D. Ranasinghe, V. G. Zakrzewski, J. Gao, N. Rega, 
 G. Zheng, W. Liang, M. Hada, M. Ehara, K. Toyota, R. Fukuda, 
 J. Hasegawa, M. Ishida, T. Nakajima, Y. Honda, O. Kitao, H. Nakai, 
 T. Vreven, K. Throssell, J. A. Montgomery, Jr., J. E. Peralta, 
 F. Ogliaro, M. J. Bearpark, J. J. Heyd, E. N. Brothers, K. N. Kudin, 
 V. N. Staroverov, T. A. Keith, R. Kobayashi, J. Normand, 
 K. Raghavachari, A. P. Rendell, J. C. Burant, S. S. Iyengar, 
 J. Tomasi, M. Cossi, J. M. Millam, M. Klene, C. Adamo, R. Cammi, 
 J. W. Ochterski, R. L. Martin, K. Morokuma, O. Farkas, 
 J. B. Foresman, and D. J. Fox, Gaussian, Inc., Wallingford CT, 2016.
 
 ******************************************
 Gaussian 16:  EM64L-G16RevA.03 25-Dec-2016
                 5-May-2021 
 ******************************************
 %chk=gaussian_01985_1_1.chk
 %nproc=2
 Will use up to    2 processors via shared memory.
 %mem=4000Mb
 -------------
 #p 6-31g* mp2
 -------------
 1/38=1,172=1/1;
 2/12=2,17=6,18=5,40=1/2;
 3/5=1,6=6,7=1,11=9,25=1,30=1/1,2,3;
 4//1;
 5/5=2,38=5/2;
 8/10=2/1;
 9/16=-3/6;
 6/7=2,8=2,9=2,10=2/1;
 99/5=1,9=1/99;
 Leave Link    1 at Wed May  5 18:11:04 2021, MaxMem=   524288000 cpu:               0.0 elap:               0.0
 (Enter /opt/gaussian/g16_legacy/l101.exe)
 ------------------------------------------------------
 Input file generated by CHIRIPA (05-May-2021 14:51:10)
 ------------------------------------------------------
 Symbolic Z-matrix:
 Charge =  0 Multiplicity = 1
 C                    -0.666    -0.374     0. 
 C                    -1.882     0.553     0. 
 C                    -3.207    -0.21      0. 
 H                    -0.713    -1.03     -0.88 
 H                    -0.713    -1.029     0.881 
 H                    -1.832     1.207    -0.88 
 H                    -1.832     1.207     0.88 
 H                    -3.283    -0.85      0.885 
 H                    -3.283    -0.85     -0.885 
 H                    -4.063     0.472     0. 
 C                     0.666     0.374     0. 
 C                     1.882    -0.553     0. 
 C                     3.207     0.21      0. 
 H                     0.713     1.029    -0.881 
 H                     0.713     1.03      0.88 
 H                     1.832    -1.207    -0.88 
 H                     1.832    -1.207     0.88 
 H                     3.283     0.85      0.885 
 H                     3.283     0.85     -0.885 
 H                     4.063    -0.472     0. 
 C                     6.92245   1.35158  -0.58502 
 C                     6.92916   0.74934   0.82042 
 C                     6.31408   1.68057   1.86554 
 H                     7.47094   2.30339  -0.57179 
 H                     5.88825   1.59073  -0.86897 
 H                     7.9629    0.51013   1.10109 
 H                     6.38075  -0.20124   0.80381 
 H                     5.27395   1.91009   1.61248 
 H                     6.86508   2.6255    1.91145 
 H                     6.32914   1.23026   2.86297 
 C                     7.53409   0.43247  -1.64088 
 C                     7.52739   1.03472  -3.04631 
 C                     8.14246   0.10349  -4.09144 
 H                     8.5683    0.19333  -1.35693 
 H                     6.9856   -0.51933  -1.6541 
 H                     8.07579   1.98529  -3.0297 
 H                     6.49365   1.27393  -3.32698 
 H                     7.59146  -0.84144  -4.13735 
 H                     9.18259  -0.12604  -3.83838 
 H                     8.1274    0.5538   -5.08887 
 
 ITRead=  0  0  0  0  0  0  0  0  0  0  0  0  0  0  0  0  0  0  0  0
 ITRead=  0  0  0  0  0  0  0  0  0  0  0  0  0  0  0  0  0  0  0  0
 MicOpt= -1 -1 -1 -1 -1 -1 -1 -1 -1 -1 -1 -1 -1 -1 -1 -1 -1 -1 -1 -1
 MicOpt= -1 -1 -1 -1 -1 -1 -1 -1 -1 -1 -1 -1 -1 -1 -1 -1 -1 -1 -1 -1
 NAtoms=     40 NQM=       40 NQMF=       0 NMMI=      0 NMMIF=      0
                NMic=       0 NMicF=      0.
                    Isotopes and Nuclear Properties:
 (Nuclear quadrupole moments (NQMom) in fm**2, nuclear magnetic moments (NMagM)
  in nuclear magnetons)

  Atom         1           2           3           4           5           6           7           8           9          10
 IAtWgt=          12          12          12           1           1           1           1           1           1           1
 AtmWgt=  12.0000000  12.0000000  12.0000000   1.0078250   1.0078250   1.0078250   1.0078250   1.0078250   1.0078250   1.0078250
 NucSpn=           0           0           0           1           1           1           1           1           1           1
 AtZEff=  -0.0000000  -0.0000000  -0.0000000  -0.0000000  -0.0000000  -0.0000000  -0.0000000  -0.0000000  -0.0000000  -0.0000000
 NQMom=    0.0000000   0.0000000   0.0000000   0.0000000   0.0000000   0.0000000   0.0000000   0.0000000   0.0000000   0.0000000
 NMagM=    0.0000000   0.0000000   0.0000000   2.7928460   2.7928460   2.7928460   2.7928460   2.7928460   2.7928460   2.7928460
 AtZNuc=   6.0000000   6.0000000   6.0000000   1.0000000   1.0000000   1.0000000   1.0000000   1.0000000   1.0000000   1.0000000

  Atom        11          12          13          14          15          16          17          18          19          20
 IAtWgt=          12          12          12           1           1           1           1           1           1           1
 AtmWgt=  12.0000000  12.0000000  12.0000000   1.0078250   1.0078250   1.0078250   1.0078250   1.0078250   1.0078250   1.0078250
 NucSpn=           0           0           0           1           1           1           1           1           1           1
 AtZEff=  -0.0000000  -0.0000000  -0.0000000  -0.0000000  -0.0000000  -0.0000000  -0.0000000  -0.0000000  -0.0000000  -0.0000000
 NQMom=    0.0000000   0.0000000   0.0000000   0.0000000   0.0000000   0.0000000   0.0000000   0.0000000   0.0000000   0.0000000
 NMagM=    0.0000000   0.0000000   0.0000000   2.7928460   2.7928460   2.7928460   2.7928460   2.7928460   2.7928460   2.7928460
 AtZNuc=   6.0000000   6.0000000   6.0000000   1.0000000   1.0000000   1.0000000   1.0000000   1.0000000   1.0000000   1.0000000

  Atom        21          22          23          24          25          26          27          28          29          30
 IAtWgt=          12          12          12           1           1           1           1           1           1           1
 AtmWgt=  12.0000000  12.0000000  12.0000000   1.0078250   1.0078250   1.0078250   1.0078250   1.0078250   1.0078250   1.0078250
 NucSpn=           0           0           0           1           1           1           1           1           1           1
 AtZEff=  -0.0000000  -0.0000000  -0.0000000  -0.0000000  -0.0000000  -0.0000000  -0.0000000  -0.0000000  -0.0000000  -0.0000000
 NQMom=    0.0000000   0.0000000   0.0000000   0.0000000   0.0000000   0.0000000   0.0000000   0.0000000   0.0000000   0.0000000
 NMagM=    0.0000000   0.0000000   0.0000000   2.7928460   2.7928460   2.7928460   2.7928460   2.7928460   2.7928460   2.7928460
 AtZNuc=   6.0000000   6.0000000   6.0000000   1.0000000   1.0000000   1.0000000   1.0000000   1.0000000   1.0000000   1.0000000

  Atom        31          32          33          34          35          36          37          38          39          40
 IAtWgt=          12          12          12           1           1           1           1           1           1           1
 AtmWgt=  12.0000000  12.0000000  12.0000000   1.0078250   1.0078250   1.0078250   1.0078250   1.0078250   1.0078250   1.0078250
 NucSpn=           0           0           0           1           1           1           1           1           1           1
 AtZEff=  -0.0000000  -0.0000000  -0.0000000  -0.0000000  -0.0000000  -0.0000000  -0.0000000  -0.0000000  -0.0000000  -0.0000000
 NQMom=    0.0000000   0.0000000   0.0000000   0.0000000   0.0000000   0.0000000   0.0000000   0.0000000   0.0000000   0.0000000
 NMagM=    0.0000000   0.0000000   0.0000000   2.7928460   2.7928460   2.7928460   2.7928460   2.7928460   2.7928460   2.7928460
 AtZNuc=   6.0000000   6.0000000   6.0000000   1.0000000   1.0000000   1.0000000   1.0000000   1.0000000   1.0000000   1.0000000
 Leave Link  101 at Wed May  5 18:11:05 2021, MaxMem=   524288000 cpu:               0.2 elap:               0.1
 (Enter /opt/gaussian/g16_legacy/l202.exe)
                          Input orientation:                          
 ---------------------------------------------------------------------
 Center     Atomic      Atomic             Coordinates (Angstroms)
 Number     Number       Type             X           Y           Z
 ---------------------------------------------------------------------
      1          6           0       -0.666000   -0.374000    0.000000
      2          6           0       -1.882000    0.553000    0.000000
      3          6           0       -3.207000   -0.210000    0.000000
      4          1           0       -0.713000   -1.030000   -0.880000
      5          1           0       -0.713000   -1.029000    0.881000
      6          1           0       -1.832000    1.207000   -0.880000
      7          1           0       -1.832000    1.207000    0.880000
      8          1           0       -3.283000   -0.850000    0.885000
      9          1           0       -3.283000   -0.850000   -0.885000
     10          1           0       -4.063000    0.472000    0.000000
     11          6           0        0.666000    0.374000    0.000000
     12          6           0        1.882000   -0.553000    0.000000
     13          6           0        3.207000    0.210000    0.000000
     14          1           0        0.713000    1.029000   -0.881000
     15          1           0        0.713000    1.030000    0.880000
     16          1           0        1.832000   -1.207000   -0.880000
     17          1           0        1.832000   -1.207000    0.880000
     18          1           0        3.283000    0.850000    0.885000
     19          1           0        3.283000    0.850000   -0.885000
     20          1           0        4.063000   -0.472000    0.000000
     21          6           0        6.922450    1.351584   -0.585015
     22          6           0        6.929155    0.749337    0.820416
     23          6           0        6.314082    1.680567    1.865543
     24          1           0        7.470941    2.303386   -0.571793
     25          1           0        5.888246    1.590725   -0.868968
     26          1           0        7.962895    0.510125    1.101086
     27          1           0        6.380748   -0.201236    0.803806
     28          1           0        5.273948    1.910092    1.612483
     29          1           0        6.865084    2.625496    1.911452
     30          1           0        6.329137    1.230258    2.862967
     31          6           0        7.534092    0.432473   -1.640883
     32          6           0        7.527387    1.034720   -3.046314
     33          6           0        8.142460    0.103490   -4.091441
     34          1           0        8.568296    0.193332   -1.356930
     35          1           0        6.985601   -0.519329   -1.654104
     36          1           0        8.075794    1.985294   -3.029704
     37          1           0        6.493647    1.273932   -3.326984
     38          1           0        7.591458   -0.841438   -4.137350
     39          1           0        9.182594   -0.126035   -3.838381
     40          1           0        8.127405    0.553799   -5.088865
 ---------------------------------------------------------------------
                    Distance matrix (angstroms):
                    1          2          3          4          5
     1  C    0.000000
     2  C    1.529047   0.000000
     3  C    2.546287   1.528985   0.000000
     4  H    1.098610   2.155655   2.768905   0.000000
     5  H    1.098815   2.155330   2.768927   1.761000   0.000000
     6  H    2.152561   1.097550   2.161692   2.501266   3.058264
     7  H    2.152561   1.097550   2.161692   3.058420   2.500372
     8  H    2.803300   2.171275   1.094806   3.122903   2.576229
     9  H    2.803300   2.171275   1.094806   2.576301   3.123411
    10  H    3.500761   2.182504   1.094468   3.775302   3.775137
    11  C    1.527654   2.554280   3.916782   2.155750   2.155507
    12  C    2.554280   3.923128   5.100546   2.781358   2.781504
    13  C    3.916782   5.100546   6.427736   4.204569   4.204484
    14  H    2.155507   2.781504   4.204484   2.504587   3.061615
    15  H    2.155750   2.781358   4.204569   3.061809   2.504587
    16  H    2.776381   4.203070   5.211519   2.551148   3.099973
    17  H    2.776381   4.203070   5.211519   3.099347   2.551217
    18  H    4.228002   5.248682   6.635279   4.755801   4.415730
    19  H    4.228002   5.248682   6.635279   4.416157   4.755777
    20  H    4.730015   6.032715   7.274720   4.888347   4.888413
    21  C    7.804131   8.859928  10.265795   8.003690   8.131204
    22  C    7.721486   8.851445  10.214453   8.028698   7.846572
    23  C    7.511527   8.481003   9.884609   8.016549   7.595457
    24  H    8.585170   9.532487  10.984647   8.842135   8.955015
    25  H    6.897347   7.887249   9.312423   7.102448   7.314492
    26  H    8.743678   9.906371  11.247112   9.031492   8.814108
    27  H    7.094548   8.335945   9.621387   7.337800   7.142297
    28  H    6.565071   7.459852   8.889397   7.120404   6.709462
    29  H    8.328736   9.190232  10.636755   8.864661   8.476115
    30  H    7.726718   8.722272  10.060260   8.289165   7.656640
    31  C    8.401453   9.558756  10.884683   8.410250   8.747018
    32  C    8.854158   9.901952  11.227485   8.766981   9.358777
    33  C    9.724035  10.836593  12.068488   9.487746  10.218947
    34  H    9.350687  10.544160  11.860081   9.373711   9.625221
    35  H    7.829698   9.084068  10.330579   7.754256   8.121267
    36  H    9.548002  10.506580  11.886962   9.537092  10.080797
    37  H    8.065051   9.041019  10.362115   7.951830   8.657158
    38  H    9.247798  10.431133  11.581152   8.922438   9.704795
    39  H   10.573053  11.731134  12.970823  10.367833  11.000486
    40  H   10.202026  11.228746  12.447838   9.918454  10.784123
                    6          7          8          9         10
     6  H    0.000000
     7  H    1.760000   0.000000
     8  H    3.074390   2.517275   0.000000
     9  H    2.517275   3.074390   1.770000   0.000000
    10  H    2.508383   2.508383   1.771810   1.771810   0.000000
    11  C    2.776381   2.776381   4.228002   4.228002   4.730015
    12  C    4.203070   4.203070   5.248682   5.248682   6.032715
    13  C    5.211519   5.211519   6.635279   6.635279   7.274720
    14  H    2.551217   3.099973   4.755777   4.415730   4.888413
    15  H    3.099347   2.551148   4.416157   4.755801   4.888347
    16  H    4.387743   4.727567   5.422721   5.127446   6.192291
    17  H    4.727567   4.387743   5.127446   5.422721   6.192291
    18  H    5.422721   5.127446   6.782504   7.009654   7.408767
    19  H    5.127446   5.422721   7.009654   6.782504   7.408767
    20  H    6.192291   6.192291   7.408767   7.408767   8.180649
    21  C    8.760612   8.877363  10.543203  10.444528  11.036124
    22  C    8.936370   8.773303  10.336835  10.476375  11.026217
    23  C    8.609351   8.219137   9.973426  10.299186  10.612479
    24  H    9.372394   9.479160  11.301033  11.211119  11.692421
    25  H    7.729784   7.925171   9.651181   9.490477  10.051564
    26  H   10.017500   9.822142  11.329907  11.500636  12.076257
    27  H    8.501033   8.332956   9.685841   9.831632  10.496248
    28  H    7.563155   7.178117   9.020460   9.331500   9.583674
    29  H    9.243571   8.872164  10.775727  11.085253  11.301071
    30  H    8.978558   8.398622  10.031600  10.524633  10.805926
    31  C    9.428813   9.730284  11.181874  10.919046  11.712668
    32  C    9.608367  10.151047  11.656409  11.184271  11.997239
    33  C   10.536647  11.199233  12.498610  11.905106  12.878235
    34  H   10.460456  10.686325  12.106528  11.906489  12.707028
    35  H    9.018289   9.335523  10.583032  10.302671  11.215631
    36  H   10.168154  10.679696  12.344472  11.902136  12.602360
    37  H    8.678053   9.328429  10.855170  10.298408  11.097509
    38  H   10.178801  10.870670  11.978226  11.350405  12.436606
    39  H   11.482608  12.056591  13.350112  12.831119  13.803499
    40  H   10.831942  11.629435  12.955889  12.240934  13.210193
                   11         12         13         14         15
    11  C    0.000000
    12  C    1.529047   0.000000
    13  C    2.546287   1.528985   0.000000
    14  H    1.098815   2.155330   2.768927   0.000000
    15  H    1.098610   2.155655   2.768905   1.761000   0.000000
    16  H    2.152561   1.097550   2.161692   2.500372   3.058420
    17  H    2.152561   1.097550   2.161692   3.058264   2.501266
    18  H    2.803300   2.171275   1.094806   3.123411   2.576301
    19  H    2.803300   2.171275   1.094806   2.576229   3.122903
    20  H    3.500761   2.182504   1.094468   3.775137   3.775302
    21  C    6.359330   5.419946   3.930652   6.224864   6.388032
    22  C    6.327801   5.276641   3.849468   6.450861   6.222773
    23  C    6.090008   5.302115   3.911109   6.272173   5.724216
    24  H    7.096245   6.302551   4.784392   6.883998   7.028441
    25  H    5.432069   4.626086   3.138564   5.205656   5.491491
    26  H    7.380759   6.270559   4.890910   7.533849   7.271872
    27  H    5.799599   4.583511   3.299681   6.039488   5.800441
    28  H    5.117897   4.491351   3.124530   5.272194   4.702482
    29  H    6.866697   6.211893   4.782243   6.942242   6.438761
    30  H    6.403193   5.581542   4.357206   6.752688   5.959300
    31  C    7.061629   5.967395   4.633111   6.889163   7.296519
    32  C    7.536260   6.608425   5.350321   7.150139   7.864594
    33  C    8.527046   7.507611   6.411708   8.146188   8.987242
    34  H    8.019986   6.863295   5.530374   7.913945   8.210332
    35  H    6.593289   5.365066   4.188771   6.506961   6.940290
    36  H    8.165808   7.347457   6.002993   7.729305   8.391013
    37  H    6.770537   5.972754   4.796126   6.281617   7.153607
    38  H    8.158243   7.056825   6.119368   7.836807   8.717182
    39  H    9.354976   8.259185   7.110120   9.045122   9.763891
    40  H    9.033351   8.131828   7.086969   8.538463   9.530347
                   16         17         18         19         20
    16  H    0.000000
    17  H    1.760000   0.000000
    18  H    3.074390   2.517275   0.000000
    19  H    2.517275   3.074390   1.770000   0.000000
    20  H    2.508383   2.508383   1.771810   1.771810   0.000000
    21  C    5.704914   5.882627   3.957035   3.686078   3.441534
    22  C    5.718361   5.460018   3.648116   4.026540   3.221737
    23  C    5.997092   5.422029   3.292228   4.176456   3.630587
    24  H    6.649470   6.799130   4.666200   4.444016   4.432130
    25  H    4.927527   5.228698   3.226823   2.708549   2.888159
    26  H    6.667915   6.370657   4.697193   5.095240   4.169669
    27  H    4.953572   4.659235   3.272267   3.681468   2.468071
    28  H    5.270269   4.701042   2.370000   3.365277   3.121035
    29  H    6.914634   6.409669   4.127628   4.878920   4.593452
    30  H    6.338318   5.486039   3.651835   4.844668   4.028603
    31  C    5.981694   6.446439   4.962479   4.337911   3.944496
    32  C    6.492739   7.271773   5.788279   4.766573   4.853062
    33  C    7.200878   8.139688   6.995470   5.869659   5.806296
    34  H    6.896816   7.234810   5.778565   5.346801   4.752012
    35  H    5.256589   5.783959   4.693758   4.021920   3.358556
    36  H    7.334639   8.028791   6.291635   5.372106   5.596420
    37  H    5.820112   6.751644   5.313076   4.056015   4.474946
    38  H    6.626864   7.647143   6.829917   5.656992   5.450153
    39  H    7.996983   8.801297   7.620248   6.669356   6.408050
    40  H    7.774772   8.852112   7.696951   6.420940   6.593042
                   21         22         23         24         25
    21  C    0.000000
    22  C    1.529046   0.000000
    23  C    2.546287   1.528985   0.000000
    24  H    1.098610   2.155654   2.768905   0.000000
    25  H    1.098816   2.155329   2.768927   1.761000   0.000000
    26  H    2.152560   1.097550   2.161692   2.501265   3.058264
    27  H    2.152560   1.097550   2.161692   3.058419   2.500371
    28  H    2.803299   2.171274   1.094806   3.122903   2.576229
    29  H    2.803300   2.171275   1.094807   2.576300   3.123411
    30  H    3.500760   2.182503   1.094468   3.775301   3.775137
    31  C    1.527654   2.554280   3.916783   2.155750   2.155507
    32  C    2.554280   3.923127   5.100546   2.781358   2.781503
    33  C    3.916783   5.100546   6.427736   4.204569   4.204483
    34  H    2.155507   2.781503   4.204483   2.504587   3.061614
    35  H    2.155749   2.781357   4.204568   3.061809   2.504587
    36  H    2.776382   4.203070   5.211519   2.551148   3.099973
    37  H    2.776382   4.203070   5.211519   3.099348   2.551218
    38  H    4.228002   5.248681   6.635279   4.755801   4.415730
    39  H    4.228002   5.248681   6.635279   4.416157   4.755776
    40  H    4.730015   6.032714   7.274719   4.888347   4.888413
                   26         27         28         29         30
    26  H    0.000000
    27  H    1.760000   0.000000
    28  H    3.074389   2.517274   0.000000
    29  H    2.517276   3.074390   1.770000   0.000000
    30  H    2.508382   2.508383   1.771809   1.771810   0.000000
    31  C    2.776382   2.776381   4.228002   4.228003   4.730015
    32  C    4.203070   4.203069   5.248681   5.248681   6.032714
    33  C    5.211519   5.211519   6.635279   6.635279   7.274719
    34  H    2.551218   3.099973   4.755776   4.415730   4.888413
    35  H    3.099347   2.551147   4.416156   4.755800   4.888346
    36  H    4.387744   4.727567   5.422720   5.127446   6.192290
    37  H    4.727568   4.387743   5.127446   5.422721   6.192291
    38  H    5.422721   5.127446   6.782503   7.009654   7.408766
    39  H    5.127446   5.422720   7.009654   6.782504   7.408766
    40  H    6.192291   6.192290   7.408766   7.408766   8.180648
                   31         32         33         34         35
    31  C    0.000000
    32  C    1.529046   0.000000
    33  C    2.546287   1.528985   0.000000
    34  H    1.098816   2.155329   2.768927   0.000000
    35  H    1.098610   2.155655   2.768906   1.761000   0.000000
    36  H    2.152561   1.097550   2.161693   2.500372   3.058420
    37  H    2.152560   1.097550   2.161692   3.058264   2.501266
    38  H    2.803299   2.171275   1.094806   3.123411   2.576301
    39  H    2.803299   2.171274   1.094806   2.576229   3.122903
    40  H    3.500760   2.182503   1.094468   3.775137   3.775302
                   36         37         38         39         40
    36  H    0.000000
    37  H    1.760000   0.000000
    38  H    3.074390   2.517275   0.000000
    39  H    2.517275   3.074389   1.769999   0.000000
    40  H    2.508383   2.508382   1.771809   1.771809   0.000000
 Stoichiometry    C12H28
 Framework group  C1[X(C12H28)]
 Deg. of freedom   114
 Full point group                 C1      NOp   1
 Largest Abelian subgroup         C1      NOp   1
 Largest concise Abelian subgroup C1      NOp   1
                         Standard orientation:                         
 ---------------------------------------------------------------------
 Center     Atomic      Atomic             Coordinates (Angstroms)
 Number     Number       Type             X           Y           Z
 ---------------------------------------------------------------------
      1          6           0       -4.364138   -0.345265    0.369780
      2          6           0       -5.473405   -0.323733   -0.682383
      3          6           0       -6.836985   -0.714860   -0.111889
      4          1           0       -4.304493   -1.350058    0.809981
      5          1           0       -4.630493    0.338857    1.187355
      6          1           0       -5.204386   -1.006648   -1.498393
      7          1           0       -5.530288    0.681075   -1.120266
      8          1           0       -7.131156   -0.028051    0.688335
      9          1           0       -6.803402   -1.725363    0.308059
     10          1           0       -7.615279   -0.692819   -0.881065
     11          6           0       -2.995017    0.043479   -0.185300
     12          6           0       -1.885750    0.021947    0.866864
     13          6           0       -0.522170    0.413074    0.296369
     14          1           0       -2.728662   -0.640643   -1.002874
     15          1           0       -3.054662    1.048272   -0.625501
     16          1           0       -1.828867   -0.982861    1.304746
     17          1           0       -2.154769    0.704862    1.682874
     18          1           0       -0.555753    1.423577   -0.123579
     19          1           0       -0.227999   -0.273735   -0.503855
     20          1           0        0.256124    0.391033    1.065546
     21          6           0        3.322619    0.715503   -0.462683
     22          6           0        3.016329    1.923475    0.423303
     23          6           0        2.302101    3.044678   -0.332062
     24          1           0        3.940182    1.038791   -1.311827
     25          1           0        2.383792    0.333092   -0.886667
     26          1           0        3.955304    2.302647    0.846591
     27          1           0        2.399583    1.597240    1.270539
     28          1           0        1.350910    2.688691   -0.740851
     29          1           0        2.915470    3.398107   -1.167208
     30          1           0        2.092808    3.898266    0.320198
     31          6           0        4.036536   -0.413717    0.278203
     32          6           0        4.342826   -1.621690   -0.607783
     33          6           0        5.057054   -2.742892    0.147582
     34          1           0        4.975363   -0.031306    0.702187
     35          1           0        3.418972   -0.737004    1.127347
     36          1           0        4.959573   -1.295453   -1.455020
     37          1           0        3.403851   -2.000861   -1.031071
     38          1           0        4.443686   -3.096321    0.982727
     39          1           0        6.008246   -2.386905    0.556370
     40          1           0        5.266347   -3.596480   -0.504678
 ---------------------------------------------------------------------
 Rotational constants (GHZ):           1.1378661           0.1749206           0.1570125
 Leave Link  202 at Wed May  5 18:11:05 2021, MaxMem=   524288000 cpu:               0.0 elap:               0.1
 (Enter /opt/gaussian/g16_legacy/l301.exe)
 Standard basis: 6-31G(d) (6D, 7F)
 Ernie: Thresh=  0.10000D-02 Tol=  0.10000D-05 Strict=F.
 There are   236 symmetry adapted cartesian basis functions of A   symmetry.
 There are   236 symmetry adapted basis functions of A   symmetry.
   236 basis functions,   448 primitive gaussians,   236 cartesian basis functions
    50 alpha electrons       50 beta electrons
       nuclear repulsion energy       677.5347627448 Hartrees.
 IExCor=    0 DFT=F Ex=HF Corr=None ExCW=0 ScaHFX=  1.000000
 ScaDFX=  1.000000  1.000000  1.000000  1.000000 ScalE2=  1.000000  1.000000
 IRadAn=      5 IRanWt=     -1 IRanGd=            0 ICorTp=0 IEmpDi=  4
 NAtoms=   40 NActive=   40 NUniq=   40 SFac= 1.00D+00 NAtFMM=   60 NAOKFM=F Big=F
 Integral buffers will be    131072 words long.
 Raffenetti 1 integral format.
 Two-electron integral symmetry is turned on.
 Leave Link  301 at Wed May  5 18:11:05 2021, MaxMem=   524288000 cpu:               0.1 elap:               0.1
 (Enter /opt/gaussian/g16_legacy/l302.exe)
 NPDir=0 NMtPBC=     1 NCelOv=     1 NCel=       1 NClECP=     1 NCelD=      1
         NCelK=      1 NCelE2=     1 NClLst=     1 CellRange=     0.0.
 One-electron integrals computed using PRISM.
 One-electron integral symmetry used in STVInt
 NBasis=   236 RedAO= T EigKep=  3.18D-03  NBF=   236
 NBsUse=   236 1.00D-06 EigRej= -1.00D+00 NBFU=   236
 Leave Link  302 at Wed May  5 18:11:05 2021, MaxMem=   524288000 cpu:               0.4 elap:               0.4
 (Enter /opt/gaussian/g16_legacy/l303.exe)
 DipDrv:  MaxL=1.
 Leave Link  303 at Wed May  5 18:11:06 2021, MaxMem=   524288000 cpu:               0.1 elap:               0.0
 (Enter /opt/gaussian/g16_legacy/l401.exe)
 ExpMin= 1.61D-01 ExpMax= 3.05D+03 ExpMxC= 4.57D+02 IAcc=3 IRadAn=         5 AccDes= 0.00D+00
 Harris functional with IExCor=  205 and IRadAn=       5 diagonalized for initial guess.
 HarFok:  IExCor=  205 AccDes= 0.00D+00 IRadAn=         5 IDoV= 1 UseB2=F ITyADJ=14
 ICtDFT=  3500011 ScaDFX=  1.000000  1.000000  1.000000  1.000000
 FoFCou: FMM=F IPFlag=           0 FMFlag=      100000 FMFlg1=           0
         NFxFlg=           0 DoJE=T BraDBF=F KetDBF=T FulRan=T
         wScrn=  0.000000 ICntrl=       500 IOpCl=  0 I1Cent=   200000004 NGrid=           0
         NMat0=    1 NMatS0=      1 NMatT0=    0 NMatD0=    1 NMtDS0=    0 NMtDT0=    0
 Petite list used in FoFCou.
 Harris En= -472.098799911803    
 JPrj=0 DoOrth=F DoCkMO=F.
 Leave Link  401 at Wed May  5 18:11:10 2021, MaxMem=   524288000 cpu:               9.1 elap:               4.6
 (Enter /opt/gaussian/g16_legacy/l502.exe)
 Keep R1 ints in memory in canonical form, NReq=397720540.
 FoFCou: FMM=F IPFlag=           0 FMFlag=           0 FMFlg1=           0
         NFxFlg=           0 DoJE=F BraDBF=F KetDBF=F FulRan=T
         wScrn=  0.000000 ICntrl=       600 IOpCl=  0 I1Cent=           0 NGrid=           0
         NMat0=    1 NMatS0=  27966 NMatT0=    0 NMatD0=    1 NMtDS0=    0 NMtDT0=    0
 Symmetry not used in FoFCou.
 Two-electron integral symmetry not used.
 Closed shell SCF:
 Using DIIS extrapolation, IDIIS=  1040.
 NGot=   524288000 LenX=   133109463 LenY=   133053326
 Requested convergence on RMS density matrix=1.00D-08 within 128 cycles.
 Requested convergence on MAX density matrix=1.00D-06.
 Requested convergence on             energy=1.00D-06.
 No special actions if energy rises.

 Cycle   1  Pass 1  IDiag  1:
 E= -469.872403638347    
 DIIS: error= 5.11D-02 at cycle   1 NSaved=   1.
 NSaved= 1 IEnMin= 1 EnMin= -469.872403638347     IErMin= 1 ErrMin= 5.11D-02
 ErrMax= 5.11D-02  0.00D+00 EMaxC= 1.00D-01 BMatC= 1.07D+00 BMatP= 1.07D+00
 IDIUse=3 WtCom= 4.89D-01 WtEn= 5.11D-01
 Coeff-Com:  0.100D+01
 Coeff-En:   0.100D+01
 Coeff:      0.100D+01
 Gap=     0.625 Goal=   None    Shift=    0.000
 GapD=    0.625 DampG=2.000 DampE=0.500 DampFc=1.0000 IDamp=-1.
 RMSDP=4.72D-03 MaxDP=1.17D-01              OVMax= 1.34D-01

 Cycle   2  Pass 1  IDiag  1:
 E= -470.595835837689     Delta-E=       -0.723432199342 Rises=F Damp=F
 DIIS: error= 2.08D-02 at cycle   2 NSaved=   2.
 NSaved= 2 IEnMin= 2 EnMin= -470.595835837689     IErMin= 2 ErrMin= 2.08D-02
 ErrMax= 2.08D-02  0.00D+00 EMaxC= 1.00D-01 BMatC= 1.46D-01 BMatP= 1.07D+00
 IDIUse=3 WtCom= 7.92D-01 WtEn= 2.08D-01
 Coeff-Com:  0.219D+00 0.781D+00
 Coeff-En:   0.000D+00 0.100D+01
 Coeff:      0.173D+00 0.827D+00
 Gap=     0.677 Goal=   None    Shift=    0.000
 RMSDP=1.70D-03 MaxDP=3.29D-02 DE=-7.23D-01 OVMax= 4.70D-02

 Cycle   3  Pass 1  IDiag  1:
 E= -470.726484785507     Delta-E=       -0.130648947818 Rises=F Damp=F
 DIIS: error= 3.80D-03 at cycle   3 NSaved=   3.
 NSaved= 3 IEnMin= 3 EnMin= -470.726484785507     IErMin= 3 ErrMin= 3.80D-03
 ErrMax= 3.80D-03  0.00D+00 EMaxC= 1.00D-01 BMatC= 4.90D-03 BMatP= 1.46D-01
 IDIUse=3 WtCom= 9.62D-01 WtEn= 3.80D-02
 Coeff-Com: -0.264D-01 0.107D+00 0.920D+00
 Coeff-En:   0.000D+00 0.000D+00 0.100D+01
 Coeff:     -0.254D-01 0.103D+00 0.923D+00
 Gap=     0.646 Goal=   None    Shift=    0.000
 RMSDP=2.80D-04 MaxDP=7.37D-03 DE=-1.31D-01 OVMax= 9.58D-03

 Cycle   4  Pass 1  IDiag  1:
 E= -470.732048013450     Delta-E=       -0.005563227943 Rises=F Damp=F
 DIIS: error= 4.36D-04 at cycle   4 NSaved=   4.
 NSaved= 4 IEnMin= 4 EnMin= -470.732048013450     IErMin= 4 ErrMin= 4.36D-04
 ErrMax= 4.36D-04  0.00D+00 EMaxC= 1.00D-01 BMatC= 6.10D-05 BMatP= 4.90D-03
 IDIUse=3 WtCom= 9.96D-01 WtEn= 4.36D-03
 Coeff-Com:  0.170D-02-0.237D-01-0.104D+00 0.113D+01
 Coeff-En:   0.000D+00 0.000D+00 0.000D+00 0.100D+01
 Coeff:      0.169D-02-0.236D-01-0.104D+00 0.113D+01
 Gap=     0.647 Goal=   None    Shift=    0.000
 RMSDP=6.04D-05 MaxDP=1.11D-03 DE=-5.56D-03 OVMax= 1.81D-03

 Cycle   5  Pass 1  IDiag  1:
 E= -470.732152651996     Delta-E=       -0.000104638546 Rises=F Damp=F
 DIIS: error= 1.36D-04 at cycle   5 NSaved=   5.
 NSaved= 5 IEnMin= 5 EnMin= -470.732152651996     IErMin= 5 ErrMin= 1.36D-04
 ErrMax= 1.36D-04  0.00D+00 EMaxC= 1.00D-01 BMatC= 6.10D-06 BMatP= 6.10D-05
 IDIUse=3 WtCom= 9.99D-01 WtEn= 1.36D-03
 Coeff-Com:  0.218D-02-0.123D-01-0.830D-01 0.193D+00 0.900D+00
 Coeff-En:   0.000D+00 0.000D+00 0.000D+00 0.000D+00 0.100D+01
 Coeff:      0.218D-02-0.123D-01-0.828D-01 0.192D+00 0.901D+00
 Gap=     0.647 Goal=   None    Shift=    0.000
 RMSDP=1.54D-05 MaxDP=3.25D-04 DE=-1.05D-04 OVMax= 4.71D-04

 Cycle   6  Pass 1  IDiag  1:
 E= -470.732161186685     Delta-E=       -0.000008534689 Rises=F Damp=F
 DIIS: error= 2.54D-05 at cycle   6 NSaved=   6.
 NSaved= 6 IEnMin= 6 EnMin= -470.732161186685     IErMin= 6 ErrMin= 2.54D-05
 ErrMax= 2.54D-05  0.00D+00 EMaxC= 1.00D-01 BMatC= 1.39D-07 BMatP= 6.10D-06
 IDIUse=1 WtCom= 1.00D+00 WtEn= 0.00D+00
 Coeff-Com:  0.118D-03-0.188D-03-0.247D-02-0.333D-01 0.618D-01 0.974D+00
 Coeff:      0.118D-03-0.188D-03-0.247D-02-0.333D-01 0.618D-01 0.974D+00
 Gap=     0.647 Goal=   None    Shift=    0.000
 RMSDP=3.35D-06 MaxDP=7.04D-05 DE=-8.53D-06 OVMax= 1.02D-04

 Cycle   7  Pass 1  IDiag  1:
 E= -470.732161424303     Delta-E=       -0.000000237618 Rises=F Damp=F
 DIIS: error= 4.49D-06 at cycle   7 NSaved=   7.
 NSaved= 7 IEnMin= 7 EnMin= -470.732161424303     IErMin= 7 ErrMin= 4.49D-06
 ErrMax= 4.49D-06  0.00D+00 EMaxC= 1.00D-01 BMatC= 5.44D-09 BMatP= 1.39D-07
 IDIUse=1 WtCom= 1.00D+00 WtEn= 0.00D+00
 Coeff-Com: -0.597D-04 0.366D-03 0.255D-02-0.703D-02-0.265D-01 0.865D-02
 Coeff-Com:  0.102D+01
 Coeff:     -0.597D-04 0.366D-03 0.255D-02-0.703D-02-0.265D-01 0.865D-02
 Coeff:      0.102D+01
 Gap=     0.647 Goal=   None    Shift=    0.000
 RMSDP=7.51D-07 MaxDP=1.61D-05 DE=-2.38D-07 OVMax= 2.28D-05

 Cycle   8  Pass 1  IDiag  1:
 E= -470.732161434381     Delta-E=       -0.000000010078 Rises=F Damp=F
 DIIS: error= 2.30D-06 at cycle   8 NSaved=   8.
 NSaved= 8 IEnMin= 8 EnMin= -470.732161434381     IErMin= 8 ErrMin= 2.30D-06
 ErrMax= 2.30D-06  0.00D+00 EMaxC= 1.00D-01 BMatC= 6.25D-10 BMatP= 5.44D-09
 IDIUse=1 WtCom= 1.00D+00 WtEn= 0.00D+00
 Coeff-Com: -0.150D-04 0.577D-04 0.495D-03 0.147D-02-0.726D-02-0.690D-01
 Coeff-Com:  0.137D+00 0.938D+00
 Coeff:     -0.150D-04 0.577D-04 0.495D-03 0.147D-02-0.726D-02-0.690D-01
 Coeff:      0.137D+00 0.938D+00
 Gap=     0.647 Goal=   None    Shift=    0.000
 RMSDP=2.09D-07 MaxDP=5.11D-06 DE=-1.01D-08 OVMax= 7.78D-06

 Cycle   9  Pass 1  IDiag  1:
 E= -470.732161435451     Delta-E=       -0.000000001070 Rises=F Damp=F
 DIIS: error= 4.95D-07 at cycle   9 NSaved=   9.
 NSaved= 9 IEnMin= 9 EnMin= -470.732161435451     IErMin= 9 ErrMin= 4.95D-07
 ErrMax= 4.95D-07  0.00D+00 EMaxC= 1.00D-01 BMatC= 4.32D-11 BMatP= 6.25D-10
 IDIUse=1 WtCom= 1.00D+00 WtEn= 0.00D+00
 Coeff-Com:  0.568D-05-0.342D-04-0.244D-03 0.516D-03 0.285D-02 0.327D-02
 Coeff-Com: -0.962D-01-0.560D-01 0.115D+01
 Coeff:      0.568D-05-0.342D-04-0.244D-03 0.516D-03 0.285D-02 0.327D-02
 Coeff:     -0.962D-01-0.560D-01 0.115D+01
 Gap=     0.647 Goal=   None    Shift=    0.000
 RMSDP=7.71D-08 MaxDP=1.90D-06 DE=-1.07D-09 OVMax= 2.43D-06

 Cycle  10  Pass 1  IDiag  1:
 E= -470.732161435561     Delta-E=       -0.000000000110 Rises=F Damp=F
 DIIS: error= 1.01D-07 at cycle  10 NSaved=  10.
 NSaved=10 IEnMin=10 EnMin= -470.732161435561     IErMin=10 ErrMin= 1.01D-07
 ErrMax= 1.01D-07  0.00D+00 EMaxC= 1.00D-01 BMatC= 1.66D-12 BMatP= 4.32D-11
 IDIUse=1 WtCom= 1.00D+00 WtEn= 0.00D+00
 Coeff-Com:  0.272D-06-0.887D-07-0.644D-05-0.144D-03 0.179D-03 0.399D-02
 Coeff-Com:  0.549D-03-0.539D-01-0.947D-01 0.114D+01
 Coeff:      0.272D-06-0.887D-07-0.644D-05-0.144D-03 0.179D-03 0.399D-02
 Coeff:      0.549D-03-0.539D-01-0.947D-01 0.114D+01
 Gap=     0.647 Goal=   None    Shift=    0.000
 RMSDP=1.49D-08 MaxDP=4.19D-07 DE=-1.10D-10 OVMax= 5.42D-07

 Cycle  11  Pass 1  IDiag  1:
 E= -470.732161435559     Delta-E=        0.000000000002 Rises=F Damp=F
 DIIS: error= 9.33D-09 at cycle  11 NSaved=  11.
 NSaved=11 IEnMin=10 EnMin= -470.732161435561     IErMin=11 ErrMin= 9.33D-09
 ErrMax= 9.33D-09  0.00D+00 EMaxC= 1.00D-01 BMatC= 4.32D-14 BMatP= 1.66D-12
 IDIUse=1 WtCom= 1.00D+00 WtEn= 0.00D+00
 Coeff-Com: -0.184D-06 0.963D-06 0.723D-05 0.128D-04-0.109D-03-0.785D-03
 Coeff-Com:  0.236D-02 0.109D-01-0.969D-02-0.220D+00 0.122D+01
 Coeff:     -0.184D-06 0.963D-06 0.723D-05 0.128D-04-0.109D-03-0.785D-03
 Coeff:      0.236D-02 0.109D-01-0.969D-02-0.220D+00 0.122D+01
 Gap=     0.647 Goal=   None    Shift=    0.000
 RMSDP=2.09D-09 MaxDP=4.35D-08 DE= 2.05D-12 OVMax= 6.83D-08

 SCF Done:  E(RHF) =  -470.732161436     A.U. after   11 cycles
            NFock= 11  Conv=0.21D-08     -V/T= 2.0011
 KE= 4.702319951677D+02 PE=-2.448223244632D+03 EE= 8.297243252835D+02
 Leave Link  502 at Wed May  5 18:11:24 2021, MaxMem=   524288000 cpu:              19.3 elap:              13.7
 (Enter /opt/gaussian/g16_legacy/l801.exe)
 ExpMin= 1.61D-01 ExpMax= 3.05D+03 ExpMxC= 4.57D+02 IAcc=3 IRadAn=         5 AccDes= 0.00D+00
 HarFok:  IExCor=  205 AccDes= 0.00D+00 IRadAn=         5 IDoV=-2 UseB2=F ITyADJ=14
 ICtDFT= 12500011 ScaDFX=  1.000000  1.000000  1.000000  1.000000
 Largest valence mixing into a core orbital is  1.98D-04
 Largest core mixing into a valence orbital is  3.29D-05
 Range of M.O.s used for correlation:    13   236
 NBasis=   236 NAE=    50 NBE=    50 NFC=    12 NFV=     0
 NROrb=    224 NOA=    38 NOB=    38 NVA=   186 NVB=   186
 Leave Link  801 at Wed May  5 18:11:24 2021, MaxMem=   524288000 cpu:               1.2 elap:               0.6
 (Enter /opt/gaussian/g16_legacy/l906.exe)
 FulOut=F Deriv=F AODrv=F NAtomX=    40
   MMem=         154  MDisk=          38 MDiskD=          38
  W3Min=     1668048 MinDsk=     1838182 NBas6D=         236
 NBas2D=       28290    NTT=       27966    LW2=     2000000
    MDV=   523955434 MDiskM=       30717 NBas2p=       18601
 Fully direct method using O(OVN) memory.
 IMap=   1   2   3   4   5   6   7   8   9  10  11  12  13  14  15  16  17  18  19  20
 IMap=  21  22  23  24  25  26  27  28  29  30  31  32  33  34  35  36  37  38
 JobTyp=1 Pass  1:  I=   1 to  38 NPSUse=  2 ParTrn=T ParDer=T DoDerP=F.
 Spin components of T(2) and E(2):
     alpha-alpha T2 =       0.6290986880D-01 E2=     -0.1844848292D+00
     alpha-beta  T2 =       0.4045158411D+00 E2=     -0.1215036371D+01
     beta-beta   T2 =       0.6290986880D-01 E2=     -0.1844848292D+00
 The integrals were generated   1 times.
 ANorm=    0.1237067330D+01
 E2 =    -0.1584006029D+01 EUMP2 =    -0.47231616746450D+03
 Leave Link  906 at Wed May  5 18:11:54 2021, MaxMem=   524288000 cpu:              57.4 elap:              29.1
 (Enter /opt/gaussian/g16_legacy/l601.exe)
 Copying SCF densities to generalized density rwf, IOpCl= 0 IROHF=0.

 **********************************************************************

            Population analysis using the SCF density.

 **********************************************************************

 Orbital symmetries:
       Occupied  (A) (A) (A) (A) (A) (A) (A) (A) (A) (A) (A) (A)
                 (A) (A) (A) (A) (A) (A) (A) (A) (A) (A) (A) (A)
                 (A) (A) (A) (A) (A) (A) (A) (A) (A) (A) (A) (A)
                 (A) (A) (A) (A) (A) (A) (A) (A) (A) (A) (A) (A)
                 (A) (A)
       Virtual   (A) (A) (A) (A) (A) (A) (A) (A) (A) (A) (A) (A)
                 (A) (A) (A) (A) (A) (A) (A) (A) (A) (A) (A) (A)
                 (A) (A) (A) (A) (A) (A) (A) (A) (A) (A) (A) (A)
                 (A) (A) (A) (A) (A) (A) (A) (A) (A) (A) (A) (A)
                 (A) (A) (A) (A) (A) (A) (A) (A) (A) (A) (A) (A)
                 (A) (A) (A) (A) (A) (A) (A) (A) (A) (A) (A) (A)
                 (A) (A) (A) (A) (A) (A) (A) (A) (A) (A) (A) (A)
                 (A) (A) (A) (A) (A) (A) (A) (A) (A) (A) (A) (A)
                 (A) (A) (A) (A) (A) (A) (A) (A) (A) (A) (A) (A)
                 (A) (A) (A) (A) (A) (A) (A) (A) (A) (A) (A) (A)
                 (A) (A) (A) (A) (A) (A) (A) (A) (A) (A) (A) (A)
                 (A) (A) (A) (A) (A) (A) (A) (A) (A) (A) (A) (A)
                 (A) (A) (A) (A) (A) (A) (A) (A) (A) (A) (A) (A)
                 (A) (A) (A) (A) (A) (A) (A) (A) (A) (A) (A) (A)
                 (A) (A) (A) (A) (A) (A) (A) (A) (A) (A) (A) (A)
                 (A) (A) (A) (A) (A) (A)
 The electronic state is 1-A.
 Alpha  occ. eigenvalues --  -11.21664 -11.21630 -11.21559 -11.21485 -11.21452
 Alpha  occ. eigenvalues --  -11.21391 -11.21320 -11.21224 -11.21156 -11.21094
 Alpha  occ. eigenvalues --  -11.21041 -11.20935  -1.08486  -1.08341  -1.03612
 Alpha  occ. eigenvalues --   -1.03430  -0.96054  -0.95893  -0.87074  -0.86920
 Alpha  occ. eigenvalues --   -0.79675  -0.79515  -0.78300  -0.78152  -0.65113
 Alpha  occ. eigenvalues --   -0.64999  -0.61094  -0.60830  -0.59358  -0.59269
 Alpha  occ. eigenvalues --   -0.57680  -0.57501  -0.55584  -0.54970  -0.52723
 Alpha  occ. eigenvalues --   -0.52605  -0.52500  -0.52323  -0.50166  -0.49637
 Alpha  occ. eigenvalues --   -0.48048  -0.47813  -0.46681  -0.46497  -0.45901
 Alpha  occ. eigenvalues --   -0.45752  -0.45698  -0.45483  -0.43803  -0.43698
 Alpha virt. eigenvalues --    0.21003   0.22974   0.23948   0.24737   0.25735
 Alpha virt. eigenvalues --    0.26063   0.26448   0.27711   0.27823   0.29340
 Alpha virt. eigenvalues --    0.30526   0.30928   0.31510   0.31854   0.32468
 Alpha virt. eigenvalues --    0.32715   0.33136   0.34061   0.34338   0.34574
 Alpha virt. eigenvalues --    0.34764   0.35138   0.35737   0.36272   0.36451
 Alpha virt. eigenvalues --    0.37575   0.38425   0.39531   0.39821   0.40280
 Alpha virt. eigenvalues --    0.40909   0.43084   0.45315   0.45549   0.46594
 Alpha virt. eigenvalues --    0.47456   0.48177   0.49334   0.68497   0.69226
 Alpha virt. eigenvalues --    0.69494   0.69872   0.71133   0.72161   0.74284
 Alpha virt. eigenvalues --    0.75706   0.75957   0.77394   0.79288   0.79743
 Alpha virt. eigenvalues --    0.80812   0.80961   0.84004   0.84840   0.86712
 Alpha virt. eigenvalues --    0.87976   0.88614   0.90471   0.95832   0.96146
 Alpha virt. eigenvalues --    0.96531   0.97137   0.98621   0.99940   1.01291
 Alpha virt. eigenvalues --    1.03105   1.05391   1.06013   1.07686   1.08547
 Alpha virt. eigenvalues --    1.10587   1.11311   1.11541   1.11987   1.15575
 Alpha virt. eigenvalues --    1.16011   1.16354   1.17077   1.17234   1.18394
 Alpha virt. eigenvalues --    1.18610   1.19548   1.19621   1.20349   1.20596
 Alpha virt. eigenvalues --    1.20752   1.21090   1.21404   1.21633   1.21868
 Alpha virt. eigenvalues --    1.22145   1.22859   1.22996   1.23829   1.24378
 Alpha virt. eigenvalues --    1.25418   1.26246   1.26954   1.27033   1.30892
 Alpha virt. eigenvalues --    1.33127   1.34237   1.40575   1.42140   1.55652
 Alpha virt. eigenvalues --    1.55790   1.66085   1.66295   1.67402   1.67467
 Alpha virt. eigenvalues --    1.71098   1.71529   1.72778   1.72931   1.79365
 Alpha virt. eigenvalues --    1.80058   1.81259   1.81841   1.92693   1.92884
 Alpha virt. eigenvalues --    2.04867   2.05564   2.13277   2.13390   2.14755
 Alpha virt. eigenvalues --    2.15377   2.17590   2.18490   2.22393   2.22551
 Alpha virt. eigenvalues --    2.25535   2.25689   2.25780   2.26343   2.27721
 Alpha virt. eigenvalues --    2.28641   2.32638   2.33149   2.33759   2.34523
 Alpha virt. eigenvalues --    2.36009   2.36316   2.39641   2.40120   2.43038
 Alpha virt. eigenvalues --    2.43692   2.56565   2.56836   2.56912   2.57133
 Alpha virt. eigenvalues --    2.59732   2.60535   2.66764   2.66997   2.67553
 Alpha virt. eigenvalues --    2.67704   2.67949   2.68881   2.76798   2.77122
 Alpha virt. eigenvalues --    2.77714   2.78289   2.80078   2.80453   2.91449
 Alpha virt. eigenvalues --    2.92125   2.95037   2.95545   2.98610   3.00519
 Alpha virt. eigenvalues --    3.13823   3.14678   3.18714   3.18934   4.55175
 Alpha virt. eigenvalues --    4.56035   4.62200   4.63298   4.72335   4.72643
 Alpha virt. eigenvalues --    4.79993   4.80253   4.87923   4.88393   4.99775
 Alpha virt. eigenvalues --    5.00390
          Condensed to atoms (all electrons):
               1          2          3          4          5          6
     1  C    5.083964   0.352248  -0.057360   0.396127   0.396136  -0.043665
     2  C    0.352248   5.060382   0.340692  -0.041792  -0.041851   0.399117
     3  C   -0.057360   0.340692   5.097292  -0.002856  -0.002860  -0.039877
     4  H    0.396127  -0.041792  -0.002856   0.566678  -0.031502  -0.002975
     5  H    0.396136  -0.041851  -0.002860  -0.031502   0.566827   0.004570
     6  H   -0.043665   0.399117  -0.039877  -0.002975   0.004570   0.564305
     7  H   -0.043640   0.399144  -0.039869   0.004565  -0.002987  -0.031646
     8  H   -0.003799  -0.038900   0.391281   0.000158   0.002625   0.004219
     9  H   -0.003800  -0.038902   0.391277   0.002623   0.000158  -0.002892
    10  H    0.004401  -0.035836   0.394128  -0.000059  -0.000059  -0.002506
    11  C    0.355487  -0.051896   0.004075  -0.041671  -0.041726  -0.003206
    12  C   -0.051912   0.003972  -0.000085  -0.003254  -0.003268  -0.000065
    13  C    0.004032  -0.000083   0.000001  -0.000054  -0.000053  -0.000001
    14  H   -0.041680  -0.003254  -0.000052  -0.002806   0.004470   0.002408
    15  H   -0.041601  -0.003236  -0.000052   0.004459  -0.002804   0.000237
    16  H   -0.003221  -0.000064  -0.000000   0.002399   0.000238   0.000017
    17  H   -0.003219  -0.000065  -0.000000   0.000237   0.002406  -0.000003
    18  H   -0.000069  -0.000001   0.000000  -0.000001   0.000013   0.000000
    19  H   -0.000070  -0.000001   0.000000   0.000013  -0.000001  -0.000002
    20  H   -0.000083   0.000001  -0.000000   0.000001   0.000001   0.000000
    21  C    0.000000  -0.000000   0.000000  -0.000000   0.000000   0.000000
    22  C    0.000000  -0.000000   0.000000  -0.000000  -0.000000  -0.000000
    23  C    0.000000  -0.000000   0.000000   0.000000  -0.000000   0.000000
    24  H   -0.000000   0.000000  -0.000000   0.000000  -0.000000  -0.000000
    25  H   -0.000000   0.000000  -0.000000   0.000000  -0.000000  -0.000000
    26  H   -0.000000   0.000000  -0.000000  -0.000000   0.000000   0.000000
    27  H   -0.000000   0.000000  -0.000000  -0.000000   0.000000   0.000000
    28  H   -0.000000   0.000000  -0.000000  -0.000000   0.000000  -0.000000
    29  H   -0.000000   0.000000  -0.000000  -0.000000   0.000000   0.000000
    30  H    0.000000  -0.000000   0.000000   0.000000   0.000000   0.000000
    31  C    0.000000  -0.000000   0.000000  -0.000000  -0.000000  -0.000000
    32  C    0.000000  -0.000000   0.000000  -0.000000   0.000000   0.000000
    33  C    0.000000   0.000000   0.000000   0.000000  -0.000000  -0.000000
    34  H   -0.000000   0.000000   0.000000  -0.000000   0.000000   0.000000
    35  H   -0.000000   0.000000  -0.000000   0.000000  -0.000000  -0.000000
    36  H   -0.000000  -0.000000  -0.000000   0.000000  -0.000000  -0.000000
    37  H   -0.000000  -0.000000  -0.000000   0.000000   0.000000   0.000000
    38  H    0.000000  -0.000000   0.000000  -0.000000   0.000000   0.000000
    39  H    0.000000  -0.000000   0.000000  -0.000000   0.000000   0.000000
    40  H    0.000000  -0.000000   0.000000  -0.000000   0.000000   0.000000
               7          8          9         10         11         12
     1  C   -0.043640  -0.003799  -0.003800   0.004401   0.355487  -0.051912
     2  C    0.399144  -0.038900  -0.038902  -0.035836  -0.051896   0.003972
     3  C   -0.039869   0.391281   0.391277   0.394128   0.004075  -0.000085
     4  H    0.004565   0.000158   0.002623  -0.000059  -0.041671  -0.003254
     5  H   -0.002987   0.002625   0.000158  -0.000059  -0.041726  -0.003268
     6  H   -0.031646   0.004219  -0.002892  -0.002506  -0.003206  -0.000065
     7  H    0.564174  -0.002892   0.004219  -0.002506  -0.003199  -0.000064
     8  H   -0.002892   0.548742  -0.029142  -0.027480  -0.000070  -0.000001
     9  H    0.004219  -0.029142   0.548794  -0.027483  -0.000070  -0.000001
    10  H   -0.002506  -0.027480  -0.027483   0.537112  -0.000087   0.000001
    11  C   -0.003199  -0.000070  -0.000070  -0.000087   5.084571   0.351829
    12  C   -0.000064  -0.000001  -0.000001   0.000001   0.351829   5.063651
    13  C   -0.000000  -0.000000  -0.000000  -0.000000  -0.057180   0.338605
    14  H    0.000237  -0.000001   0.000013   0.000001   0.396063  -0.041899
    15  H    0.002403   0.000013  -0.000001   0.000001   0.396069  -0.041770
    16  H   -0.000003   0.000000  -0.000002   0.000000  -0.043480   0.398784
    17  H    0.000017  -0.000002   0.000000   0.000000  -0.043515   0.398818
    18  H   -0.000002   0.000000  -0.000000  -0.000000  -0.003704  -0.038615
    19  H    0.000000  -0.000000   0.000000  -0.000000  -0.003812  -0.038799
    20  H    0.000000  -0.000000  -0.000000   0.000000   0.004329  -0.035552
    21  C    0.000000   0.000000   0.000000  -0.000000  -0.000000   0.000013
    22  C   -0.000000  -0.000000  -0.000000  -0.000000  -0.000000   0.000003
    23  C    0.000000   0.000000   0.000000  -0.000000   0.000000   0.000016
    24  H    0.000000  -0.000000  -0.000000   0.000000   0.000000  -0.000000
    25  H   -0.000000  -0.000000  -0.000000   0.000000  -0.000000   0.000012
    26  H   -0.000000   0.000000   0.000000   0.000000   0.000000   0.000000
    27  H   -0.000000   0.000000  -0.000000   0.000000   0.000000  -0.000018
    28  H    0.000000  -0.000000   0.000000   0.000000  -0.000001   0.000011
    29  H   -0.000000  -0.000000  -0.000000   0.000000  -0.000000  -0.000000
    30  H   -0.000000  -0.000000  -0.000000   0.000000  -0.000000  -0.000001
    31  C    0.000000  -0.000000  -0.000000  -0.000000  -0.000000  -0.000000
    32  C   -0.000000   0.000000  -0.000000  -0.000000  -0.000000   0.000000
    33  C   -0.000000   0.000000  -0.000000   0.000000  -0.000000   0.000000
    34  H    0.000000   0.000000   0.000000   0.000000   0.000000   0.000000
    35  H    0.000000  -0.000000   0.000000   0.000000   0.000000  -0.000002
    36  H    0.000000  -0.000000   0.000000   0.000000  -0.000000   0.000000
    37  H    0.000000  -0.000000   0.000000   0.000000   0.000000  -0.000000
    38  H   -0.000000   0.000000   0.000000  -0.000000  -0.000000   0.000000
    39  H   -0.000000   0.000000   0.000000   0.000000  -0.000000  -0.000000
    40  H   -0.000000   0.000000   0.000000   0.000000  -0.000000   0.000000
              13         14         15         16         17         18
     1  C    0.004032  -0.041680  -0.041601  -0.003221  -0.003219  -0.000069
     2  C   -0.000083  -0.003254  -0.003236  -0.000064  -0.000065  -0.000001
     3  C    0.000001  -0.000052  -0.000052  -0.000000  -0.000000   0.000000
     4  H   -0.000054  -0.002806   0.004459   0.002399   0.000237  -0.000001
     5  H   -0.000053   0.004470  -0.002804   0.000238   0.002406   0.000013
     6  H   -0.000001   0.002408   0.000237   0.000017  -0.000003   0.000000
     7  H   -0.000000   0.000237   0.002403  -0.000003   0.000017  -0.000002
     8  H   -0.000000  -0.000001   0.000013   0.000000  -0.000002   0.000000
     9  H   -0.000000   0.000013  -0.000001  -0.000002   0.000000  -0.000000
    10  H   -0.000000   0.000001   0.000001   0.000000   0.000000  -0.000000
    11  C   -0.057180   0.396063   0.396069  -0.043480  -0.043515  -0.003704
    12  C    0.338605  -0.041899  -0.041770   0.398784   0.398818  -0.038615
    13  C    5.105689  -0.002890  -0.002943  -0.039609  -0.039556   0.391917
    14  H   -0.002890   0.567045  -0.031505  -0.002982   0.004569   0.000146
    15  H   -0.002943  -0.031505   0.566481   0.004566  -0.002970   0.002706
    16  H   -0.039609  -0.002982   0.004566   0.564335  -0.031608   0.004179
    17  H   -0.039556   0.004569  -0.002970  -0.031608   0.563844  -0.002935
    18  H    0.391917   0.000146   0.002706   0.004179  -0.002935   0.544671
    19  H    0.391070   0.002648   0.000155  -0.002922   0.004206  -0.029415
    20  H    0.394805  -0.000059  -0.000056  -0.002520  -0.002505  -0.027922
    21  C   -0.000254  -0.000000  -0.000000  -0.000000  -0.000000   0.000023
    22  C   -0.000777   0.000000   0.000000   0.000000   0.000001   0.000001
    23  C   -0.000761  -0.000000  -0.000000  -0.000000  -0.000000  -0.000684
    24  H   -0.000001   0.000000  -0.000000  -0.000000   0.000000  -0.000002
    25  H    0.000018  -0.000001   0.000000   0.000000   0.000000  -0.000067
    26  H    0.000009  -0.000000  -0.000000  -0.000000  -0.000000   0.000000
    27  H   -0.000243   0.000000  -0.000000   0.000000   0.000001   0.000043
    28  H   -0.000420   0.000000  -0.000003  -0.000000   0.000001   0.000923
    29  H    0.000013   0.000000   0.000000   0.000000  -0.000000   0.000018
    30  H    0.000013   0.000000   0.000000   0.000000   0.000000   0.000047
    31  C   -0.000013   0.000000   0.000000   0.000000   0.000000   0.000002
    32  C   -0.000005  -0.000000  -0.000000   0.000000  -0.000000   0.000000
    33  C    0.000000   0.000000   0.000000  -0.000000   0.000000  -0.000000
    34  H    0.000000  -0.000000  -0.000000  -0.000000  -0.000000  -0.000000
    35  H    0.000025  -0.000000   0.000000  -0.000000   0.000000  -0.000002
    36  H   -0.000000   0.000000   0.000000   0.000000  -0.000000   0.000000
    37  H    0.000002  -0.000000  -0.000000  -0.000000   0.000000  -0.000000
    38  H   -0.000000   0.000000   0.000000   0.000000  -0.000000   0.000000
    39  H   -0.000000  -0.000000  -0.000000   0.000000  -0.000000   0.000000
    40  H   -0.000000   0.000000  -0.000000  -0.000000  -0.000000   0.000000
              19         20         21         22         23         24
     1  C   -0.000070  -0.000083   0.000000   0.000000   0.000000  -0.000000
     2  C   -0.000001   0.000001  -0.000000  -0.000000  -0.000000   0.000000
     3  C    0.000000  -0.000000   0.000000   0.000000   0.000000  -0.000000
     4  H    0.000013   0.000001  -0.000000  -0.000000   0.000000   0.000000
     5  H   -0.000001   0.000001   0.000000  -0.000000  -0.000000  -0.000000
     6  H   -0.000002   0.000000   0.000000  -0.000000   0.000000  -0.000000
     7  H    0.000000   0.000000   0.000000  -0.000000   0.000000   0.000000
     8  H   -0.000000  -0.000000   0.000000  -0.000000   0.000000  -0.000000
     9  H    0.000000  -0.000000   0.000000  -0.000000   0.000000  -0.000000
    10  H   -0.000000   0.000000  -0.000000  -0.000000  -0.000000   0.000000
    11  C   -0.003812   0.004329  -0.000000  -0.000000   0.000000   0.000000
    12  C   -0.038799  -0.035552   0.000013   0.000003   0.000016  -0.000000
    13  C    0.391070   0.394805  -0.000254  -0.000777  -0.000761  -0.000001
    14  H    0.002648  -0.000059  -0.000000   0.000000  -0.000000   0.000000
    15  H    0.000155  -0.000056  -0.000000   0.000000  -0.000000  -0.000000
    16  H   -0.002922  -0.002520  -0.000000   0.000000  -0.000000  -0.000000
    17  H    0.004206  -0.002505  -0.000000   0.000001  -0.000000   0.000000
    18  H   -0.029415  -0.027922   0.000023   0.000001  -0.000684  -0.000002
    19  H    0.548894  -0.027563  -0.000253   0.000053   0.000019   0.000006
    20  H   -0.027563   0.532550  -0.000112  -0.000748   0.000065   0.000012
    21  C   -0.000253  -0.000112   5.089416   0.351719  -0.056939   0.395756
    22  C    0.000053  -0.000748   0.351719   5.062693   0.340470  -0.041776
    23  C    0.000019   0.000065  -0.056939   0.340470   5.102917  -0.002863
    24  H    0.000006   0.000012   0.395756  -0.041776  -0.002863   0.567616
    25  H    0.000716  -0.000263   0.396725  -0.041526  -0.002803  -0.031393
    26  H   -0.000000   0.000019  -0.043596   0.399213  -0.039820  -0.002986
    27  H   -0.000013   0.001192  -0.043698   0.398876  -0.039787   0.004549
    28  H    0.000073  -0.000080  -0.003699  -0.038831   0.391281   0.000177
    29  H   -0.000002   0.000003  -0.003816  -0.038870   0.390626   0.002606
    30  H    0.000000  -0.000004   0.004396  -0.035881   0.394061  -0.000057
    31  C    0.000007   0.000012   0.355097  -0.051798   0.004060  -0.041623
    32  C   -0.000001  -0.000005  -0.051880   0.003975  -0.000085  -0.003263
    33  C   -0.000000  -0.000000   0.004069  -0.000085   0.000001  -0.000052
    34  H    0.000000  -0.000002  -0.041697  -0.003251  -0.000053  -0.002819
    35  H    0.000009   0.000261  -0.041705  -0.003208  -0.000048   0.004468
    36  H   -0.000000   0.000000  -0.003183  -0.000065  -0.000000   0.002396
    37  H    0.000033  -0.000001  -0.003137  -0.000065  -0.000000   0.000239
    38  H   -0.000000  -0.000000  -0.000070  -0.000000  -0.000000  -0.000001
    39  H    0.000000  -0.000000  -0.000070  -0.000001  -0.000000   0.000013
    40  H   -0.000000  -0.000000  -0.000087   0.000001  -0.000000   0.000001
              25         26         27         28         29         30
     1  C   -0.000000  -0.000000  -0.000000  -0.000000  -0.000000   0.000000
     2  C    0.000000   0.000000   0.000000   0.000000   0.000000  -0.000000
     3  C   -0.000000  -0.000000  -0.000000  -0.000000  -0.000000   0.000000
     4  H    0.000000  -0.000000  -0.000000  -0.000000  -0.000000   0.000000
     5  H   -0.000000   0.000000   0.000000   0.000000   0.000000   0.000000
     6  H   -0.000000   0.000000   0.000000  -0.000000   0.000000   0.000000
     7  H   -0.000000  -0.000000  -0.000000   0.000000  -0.000000  -0.000000
     8  H   -0.000000   0.000000   0.000000  -0.000000  -0.000000  -0.000000
     9  H   -0.000000   0.000000  -0.000000   0.000000  -0.000000  -0.000000
    10  H    0.000000   0.000000   0.000000   0.000000   0.000000   0.000000
    11  C   -0.000000   0.000000   0.000000  -0.000001  -0.000000  -0.000000
    12  C    0.000012   0.000000  -0.000018   0.000011  -0.000000  -0.000001
    13  C    0.000018   0.000009  -0.000243  -0.000420   0.000013   0.000013
    14  H   -0.000001  -0.000000   0.000000   0.000000   0.000000   0.000000
    15  H    0.000000  -0.000000  -0.000000  -0.000003   0.000000   0.000000
    16  H    0.000000  -0.000000   0.000000  -0.000000   0.000000   0.000000
    17  H    0.000000  -0.000000   0.000001   0.000001  -0.000000   0.000000
    18  H   -0.000067   0.000000   0.000043   0.000923   0.000018   0.000047
    19  H    0.000716  -0.000000  -0.000013   0.000073  -0.000002   0.000000
    20  H   -0.000263   0.000019   0.001192  -0.000080   0.000003  -0.000004
    21  C    0.396725  -0.043596  -0.043698  -0.003699  -0.003816   0.004396
    22  C   -0.041526   0.399213   0.398876  -0.038831  -0.038870  -0.035881
    23  C   -0.002803  -0.039820  -0.039787   0.391281   0.390626   0.394061
    24  H   -0.031393  -0.002986   0.004549   0.000177   0.002606  -0.000057
    25  H    0.559202   0.004505  -0.003149   0.002256   0.000170  -0.000052
    26  H    0.004505   0.565036  -0.032045   0.004173  -0.002874  -0.002498
    27  H   -0.003149  -0.032045   0.563516  -0.003019   0.004231  -0.002471
    28  H    0.002256   0.004173  -0.003019   0.543736  -0.028937  -0.027692
    29  H    0.000170  -0.002874   0.004231  -0.028937   0.549986  -0.027550
    30  H   -0.000052  -0.002498  -0.002471  -0.027692  -0.027550   0.538737
    31  C   -0.041418  -0.003207  -0.003193  -0.000065  -0.000068  -0.000087
    32  C   -0.003234  -0.000064  -0.000060  -0.000000  -0.000001   0.000001
    33  C   -0.000051  -0.000000  -0.000000  -0.000000  -0.000000  -0.000000
    34  H    0.004433   0.002426   0.000258  -0.000002   0.000013   0.000001
    35  H   -0.002865   0.000236   0.002192   0.000014  -0.000002   0.000001
    36  H    0.000238   0.000017  -0.000004   0.000000  -0.000002   0.000000
    37  H    0.002384  -0.000003   0.000018  -0.000002   0.000000   0.000000
    38  H    0.000013   0.000000  -0.000002   0.000000  -0.000000  -0.000000
    39  H   -0.000001  -0.000002   0.000000  -0.000000   0.000000  -0.000000
    40  H    0.000001   0.000000   0.000000  -0.000000  -0.000000   0.000000
              31         32         33         34         35         36
     1  C    0.000000   0.000000   0.000000  -0.000000  -0.000000  -0.000000
     2  C   -0.000000  -0.000000   0.000000   0.000000   0.000000  -0.000000
     3  C    0.000000   0.000000   0.000000   0.000000  -0.000000  -0.000000
     4  H   -0.000000  -0.000000   0.000000  -0.000000   0.000000   0.000000
     5  H   -0.000000   0.000000  -0.000000   0.000000  -0.000000  -0.000000
     6  H   -0.000000   0.000000  -0.000000   0.000000  -0.000000  -0.000000
     7  H    0.000000  -0.000000  -0.000000   0.000000   0.000000   0.000000
     8  H   -0.000000   0.000000   0.000000   0.000000  -0.000000  -0.000000
     9  H   -0.000000  -0.000000  -0.000000   0.000000   0.000000   0.000000
    10  H   -0.000000  -0.000000   0.000000   0.000000   0.000000   0.000000
    11  C   -0.000000  -0.000000  -0.000000   0.000000   0.000000  -0.000000
    12  C   -0.000000   0.000000   0.000000   0.000000  -0.000002   0.000000
    13  C   -0.000013  -0.000005   0.000000   0.000000   0.000025  -0.000000
    14  H    0.000000  -0.000000   0.000000  -0.000000  -0.000000   0.000000
    15  H    0.000000  -0.000000   0.000000  -0.000000   0.000000   0.000000
    16  H    0.000000   0.000000  -0.000000  -0.000000  -0.000000   0.000000
    17  H    0.000000  -0.000000   0.000000  -0.000000   0.000000  -0.000000
    18  H    0.000002   0.000000  -0.000000  -0.000000  -0.000002   0.000000
    19  H    0.000007  -0.000001  -0.000000   0.000000   0.000009  -0.000000
    20  H    0.000012  -0.000005  -0.000000  -0.000002   0.000261   0.000000
    21  C    0.355097  -0.051880   0.004069  -0.041697  -0.041705  -0.003183
    22  C   -0.051798   0.003975  -0.000085  -0.003251  -0.003208  -0.000065
    23  C    0.004060  -0.000085   0.000001  -0.000053  -0.000048  -0.000000
    24  H   -0.041623  -0.003263  -0.000052  -0.002819   0.004468   0.002396
    25  H   -0.041418  -0.003234  -0.000051   0.004433  -0.002865   0.000238
    26  H   -0.003207  -0.000064  -0.000000   0.002426   0.000236   0.000017
    27  H   -0.003193  -0.000060  -0.000000   0.000258   0.002192  -0.000004
    28  H   -0.000065  -0.000000  -0.000000  -0.000002   0.000014   0.000000
    29  H   -0.000068  -0.000001  -0.000000   0.000013  -0.000002  -0.000002
    30  H   -0.000087   0.000001  -0.000000   0.000001   0.000001   0.000000
    31  C    5.083851   0.352328  -0.057367   0.396100   0.396054  -0.043612
    32  C    0.352328   5.060356   0.340629  -0.041909  -0.041859   0.399137
    33  C   -0.057367   0.340629   5.097496  -0.002874  -0.002858  -0.039911
    34  H    0.396100  -0.041909  -0.002874   0.567408  -0.031611  -0.002984
    35  H    0.396054  -0.041859  -0.002858  -0.031611   0.567708   0.004570
    36  H   -0.043612   0.399137  -0.039911  -0.002984   0.004570   0.564363
    37  H   -0.043680   0.399029  -0.039940   0.004577  -0.002971  -0.031670
    38  H   -0.003792  -0.038899   0.391250   0.000160   0.002623   0.004222
    39  H   -0.003786  -0.038888   0.391272   0.002625   0.000159  -0.002892
    40  H    0.004401  -0.035850   0.394063  -0.000059  -0.000059  -0.002505
              37         38         39         40
     1  C   -0.000000   0.000000   0.000000   0.000000
     2  C   -0.000000  -0.000000  -0.000000  -0.000000
     3  C   -0.000000   0.000000   0.000000   0.000000
     4  H    0.000000  -0.000000  -0.000000  -0.000000
     5  H    0.000000   0.000000   0.000000   0.000000
     6  H    0.000000   0.000000   0.000000   0.000000
     7  H    0.000000  -0.000000  -0.000000  -0.000000
     8  H   -0.000000   0.000000   0.000000   0.000000
     9  H    0.000000   0.000000   0.000000   0.000000
    10  H    0.000000  -0.000000   0.000000   0.000000
    11  C    0.000000  -0.000000  -0.000000  -0.000000
    12  C   -0.000000   0.000000  -0.000000   0.000000
    13  C    0.000002  -0.000000  -0.000000  -0.000000
    14  H   -0.000000   0.000000  -0.000000   0.000000
    15  H   -0.000000   0.000000  -0.000000  -0.000000
    16  H   -0.000000   0.000000   0.000000  -0.000000
    17  H    0.000000  -0.000000  -0.000000  -0.000000
    18  H   -0.000000   0.000000   0.000000   0.000000
    19  H    0.000033  -0.000000   0.000000  -0.000000
    20  H   -0.000001  -0.000000  -0.000000  -0.000000
    21  C   -0.003137  -0.000070  -0.000070  -0.000087
    22  C   -0.000065  -0.000000  -0.000001   0.000001
    23  C   -0.000000  -0.000000  -0.000000  -0.000000
    24  H    0.000239  -0.000001   0.000013   0.000001
    25  H    0.002384   0.000013  -0.000001   0.000001
    26  H   -0.000003   0.000000  -0.000002   0.000000
    27  H    0.000018  -0.000002   0.000000   0.000000
    28  H   -0.000002   0.000000  -0.000000  -0.000000
    29  H    0.000000  -0.000000   0.000000  -0.000000
    30  H    0.000000  -0.000000  -0.000000   0.000000
    31  C   -0.043680  -0.003792  -0.003786   0.004401
    32  C    0.399029  -0.038899  -0.038888  -0.035850
    33  C   -0.039940   0.391250   0.391272   0.394063
    34  H    0.004577   0.000160   0.002625  -0.000059
    35  H   -0.002971   0.002623   0.000159  -0.000059
    36  H   -0.031670   0.004222  -0.002892  -0.002505
    37  H    0.564864  -0.002894   0.004224  -0.002507
    38  H   -0.002894   0.549055  -0.029151  -0.027524
    39  H    0.004224  -0.029151   0.548864  -0.027511
    40  H   -0.002507  -0.027524  -0.027511   0.537625
 Mulliken charges:
               1
     1  C   -0.298277
     2  C   -0.299674
     3  C   -0.475735
     4  H    0.149708
     5  H    0.149666
     6  H    0.151963
     7  H    0.152049
     8  H    0.155246
     9  H    0.155207
    10  H    0.160372
    11  C   -0.298805
    12  C   -0.300409
    13  C   -0.481358
    14  H    0.149530
    15  H    0.149851
    16  H    0.151892
    17  H    0.152279
    18  H    0.158728
    19  H    0.154952
    20  H    0.164222
    21  C   -0.303019
    22  C   -0.300125
    23  C   -0.479668
    24  H    0.148997
    25  H    0.156151
    26  H    0.151459
    27  H    0.152824
    28  H    0.160105
    29  H    0.154456
    30  H    0.159037
    31  C   -0.298202
    32  C   -0.299453
    33  C   -0.475642
    34  H    0.149259
    35  H    0.148871
    36  H    0.151884
    37  H    0.151501
    38  H    0.155009
    39  H    0.155144
    40  H    0.160008
 Sum of Mulliken charges =  -0.00000
 Mulliken charges with hydrogens summed into heavy atoms:
               1
     1  C    0.001097
     2  C    0.004337
     3  C   -0.004910
    11  C    0.000575
    12  C    0.003762
    13  C   -0.003457
    21  C    0.002129
    22  C    0.004159
    23  C   -0.006071
    31  C   -0.000073
    32  C    0.003932
    33  C   -0.005480
 Electronic spatial extent (au):  <R**2>=           7117.3076
 Charge=             -0.0000 electrons
 Dipole moment (field-independent basis, Debye):
    X=             -0.0612    Y=             -0.0052    Z=             -0.0063  Tot=              0.0618
 Quadrupole moment (field-independent basis, Debye-Ang):
   XX=            -85.5087   YY=            -84.6440   ZZ=            -84.9366
   XY=              0.2912   XZ=             -0.2195   YZ=              0.5505
 Traceless Quadrupole moment (field-independent basis, Debye-Ang):
   XX=             -0.4789   YY=              0.3858   ZZ=              0.0932
   XY=              0.2912   XZ=             -0.2195   YZ=              0.5505
 Octapole moment (field-independent basis, Debye-Ang**2):
  XXX=             16.5173  YYY=             -1.0925  ZZZ=              0.0150  XYY=             -5.9374
  XXY=              9.6733  XXZ=             -5.1763  XZZ=             -0.2862  YZZ=             -0.0136
  YYZ=              0.1406  XYZ=             -0.3218
 Hexadecapole moment (field-independent basis, Debye-Ang**3):
 XXXX=          -8588.4986 YYYY=          -1295.4049 ZZZZ=           -298.8597 XXXY=              7.6572
 XXXZ=              5.0806 YYYX=              9.4210 YYYZ=              9.6718 ZZZX=             -1.3038
 ZZZY=              1.6687 XXYY=          -1638.0504 XXZZ=          -1465.6004 YYZZ=           -260.7087
 XXYZ=             12.0271 YYXZ=             -7.1836 ZZXY=             -0.1021
 N-N= 6.775347627448D+02 E-N=-2.448223244814D+03  KE= 4.702319951677D+02
 Leave Link  601 at Wed May  5 18:11:54 2021, MaxMem=   524288000 cpu:               0.3 elap:               0.4
 (Enter /opt/gaussian/g16_legacy/l9999.exe)
 1\1\GINC-TRUENO93\SP\RMP2-FC\6-31G(d)\C12H28\JRAMOS\05-May-2021\0\\#p 
 6-31g* mp2\\Input file generated by CHIRIPA (05-May-2021 14:51:10)\\0,
 1\C,0,-0.666,-0.374,0.\C,0,-1.882,0.553,0.\C,0,-3.207,-0.21,0.\H,0,-0.
 713,-1.03,-0.88\H,0,-0.713,-1.029,0.881\H,0,-1.832,1.207,-0.88\H,0,-1.
 832,1.207,0.88\H,0,-3.283,-0.85,0.885\H,0,-3.283,-0.85,-0.885\H,0,-4.0
 63,0.472,0.\C,0,0.666,0.374,0.\C,0,1.882,-0.553,0.\C,0,3.207,0.21,0.\H
 ,0,0.713,1.029,-0.881\H,0,0.713,1.03,0.88\H,0,1.832,-1.207,-0.88\H,0,1
 .832,-1.207,0.88\H,0,3.283,0.85,0.885\H,0,3.283,0.85,-0.885\H,0,4.063,
 -0.472,0.\C,0,6.92245,1.351584,-0.585015\C,0,6.929155,0.749337,0.82041
 6\C,0,6.314082,1.680567,1.865543\H,0,7.470941,2.303386,-0.571793\H,0,5
 .888246,1.590725,-0.868968\H,0,7.962895,0.510125,1.101086\H,0,6.380748
 ,-0.201236,0.803806\H,0,5.273948,1.910092,1.612483\H,0,6.865084,2.6254
 96,1.911452\H,0,6.329137,1.230258,2.862967\C,0,7.534092,0.432473,-1.64
 0883\C,0,7.527387,1.03472,-3.046314\C,0,8.14246,0.10349,-4.091441\H,0,
 8.568296,0.193332,-1.35693\H,0,6.985601,-0.519329,-1.654104\H,0,8.0757
 94,1.985294,-3.029704\H,0,6.493647,1.273932,-3.326984\H,0,7.591458,-0.
 841438,-4.13735\H,0,9.182594,-0.126035,-3.838381\H,0,8.127405,0.553799
 ,-5.088865\\Version=EM64L-G16RevA.03\State=1-A\HF=-470.7321614\MP2=-47
 2.3161675\RMSD=2.088e-09\PG=C01 [X(C12H28)]\\@


 LIFE IS SO UNCERTAIN - EAT DESSERT FIRST.
 Job cpu time:       0 days  0 hours  1 minutes 28.4 seconds.
 Elapsed time:       0 days  0 hours  0 minutes 49.4 seconds.
 File lengths (MBytes):  RWF=     26 Int=      0 D2E=      0 Chk=      5 Scr=      1
 Normal termination of Gaussian 16 at Wed May  5 18:11:54 2021.
