 Entering Gaussian System, Link 0=/opt/gaussian/g16_legacy/g16
 Input=gaussian_02781_1_2.com
 Output=gaussian_02781_1_2.log
 Initial command:
 /opt/gaussian/g16_legacy/l1.exe "/scratch-local/jramos/2584391/Gau-4490.inp" -scrdir="/scratch-local/jramos/2584391/"
 Entering Link 1 = /opt/gaussian/g16_legacy/l1.exe PID=      4491.
  
 Copyright (c) 1988,1990,1992,1993,1995,1998,2003,2009,2016,
            Gaussian, Inc.  All Rights Reserved.
  
 This is part of the Gaussian(R) 16 program.  It is based on
 the Gaussian(R) 09 system (copyright 2009, Gaussian, Inc.),
 the Gaussian(R) 03 system (copyright 2003, Gaussian, Inc.),
 the Gaussian(R) 98 system (copyright 1998, Gaussian, Inc.),
 the Gaussian(R) 94 system (copyright 1995, Gaussian, Inc.),
 the Gaussian 92(TM) system (copyright 1992, Gaussian, Inc.),
 the Gaussian 90(TM) system (copyright 1990, Gaussian, Inc.),
 the Gaussian 88(TM) system (copyright 1988, Gaussian, Inc.),
 the Gaussian 86(TM) system (copyright 1986, Carnegie Mellon
 University), and the Gaussian 82(TM) system (copyright 1983,
 Carnegie Mellon University). Gaussian is a federally registered
 trademark of Gaussian, Inc.
  
 This software contains proprietary and confidential information,
 including trade secrets, belonging to Gaussian, Inc.
  
 This software is provided under written license and may be
 used, copied, transmitted, or stored only in accord with that
 written license.
  
 The following legend is applicable only to US Government
 contracts under FAR:
  
                    RESTRICTED RIGHTS LEGEND
  
 Use, reproduction and disclosure by the US Government is
 subject to restrictions as set forth in subparagraphs (a)
 and (c) of the Commercial Computer Software - Restricted
 Rights clause in FAR 52.227-19.
  
 Gaussian, Inc.
 340 Quinnipiac St., Bldg. 40, Wallingford CT 06492
  
  
 ---------------------------------------------------------------
 Warning -- This program may not be used in any manner that
 competes with the business of Gaussian, Inc. or will provide
 assistance to any competitor of Gaussian, Inc.  The licensee
 of this program is prohibited from giving any competitor of
 Gaussian, Inc. access to this program.  By using this program,
 the user acknowledges that Gaussian, Inc. is engaged in the
 business of creating and licensing software in the field of
 computational chemistry and represents and warrants to the
 licensee that it is not a competitor of Gaussian, Inc. and that
 it will not use this program in any manner prohibited above.
 ---------------------------------------------------------------
  

 Cite this work as:
 Gaussian 16, Revision A.03,
 M. J. Frisch, G. W. Trucks, H. B. Schlegel, G. E. Scuseria, 
 M. A. Robb, J. R. Cheeseman, G. Scalmani, V. Barone, 
 G. A. Petersson, H. Nakatsuji, X. Li, M. Caricato, A. V. Marenich, 
 J. Bloino, B. G. Janesko, R. Gomperts, B. Mennucci, H. P. Hratchian, 
 J. V. Ortiz, A. F. Izmaylov, J. L. Sonnenberg, D. Williams-Young, 
 F. Ding, F. Lipparini, F. Egidi, J. Goings, B. Peng, A. Petrone, 
 T. Henderson, D. Ranasinghe, V. G. Zakrzewski, J. Gao, N. Rega, 
 G. Zheng, W. Liang, M. Hada, M. Ehara, K. Toyota, R. Fukuda, 
 J. Hasegawa, M. Ishida, T. Nakajima, Y. Honda, O. Kitao, H. Nakai, 
 T. Vreven, K. Throssell, J. A. Montgomery, Jr., J. E. Peralta, 
 F. Ogliaro, M. J. Bearpark, J. J. Heyd, E. N. Brothers, K. N. Kudin, 
 V. N. Staroverov, T. A. Keith, R. Kobayashi, J. Normand, 
 K. Raghavachari, A. P. Rendell, J. C. Burant, S. S. Iyengar, 
 J. Tomasi, M. Cossi, J. M. Millam, M. Klene, C. Adamo, R. Cammi, 
 J. W. Ochterski, R. L. Martin, K. Morokuma, O. Farkas, 
 J. B. Foresman, and D. J. Fox, Gaussian, Inc., Wallingford CT, 2016.
 
 ******************************************
 Gaussian 16:  EM64L-G16RevA.03 25-Dec-2016
                 5-May-2021 
 ******************************************
 %chk=gaussian_02781_1_2.chk
 %nproc=2
 Will use up to    2 processors via shared memory.
 %mem=4000Mb
 -------------
 #p 6-31g* mp2
 -------------
 1/38=1,172=1/1;
 2/12=2,17=6,18=5,40=1/2;
 3/5=1,6=6,7=1,11=9,25=1,30=1/1,2,3;
 4//1;
 5/5=2,38=5/2;
 8/10=2/1;
 9/16=-3/6;
 6/7=2,8=2,9=2,10=2/1;
 99/5=1,9=1/99;
 Leave Link    1 at Wed May  5 17:06:46 2021, MaxMem=   524288000 cpu:               0.1 elap:               0.1
 (Enter /opt/gaussian/g16_legacy/l101.exe)
 ------------------------------------------------------
 Input file generated by CHIRIPA (05-May-2021 14:53:15)
 ------------------------------------------------------
 Symbolic Z-matrix:
 Charge =  0 Multiplicity = 1
 C                    -0.666    -0.374     0. 
 C                    -1.882     0.553     0. 
 C                    -3.207    -0.21      0. 
 H                    -0.713    -1.03     -0.88 
 H                    -0.713    -1.029     0.881 
 H                    -1.832     1.207    -0.88 
 H                    -1.832     1.207     0.88 
 H                    -3.283    -0.85      0.885 
 H                    -3.283    -0.85     -0.885 
 H                    -4.063     0.472     0. 
 C                     0.666     0.374     0. 
 C                     1.882    -0.553     0. 
 C                     3.207     0.21      0. 
 H                     0.713     1.029    -0.881 
 H                     0.713     1.03      0.88 
 H                     1.832    -1.207    -0.88 
 H                     1.832    -1.207     0.88 
 H                     3.283     0.85      0.885 
 H                     3.283     0.85     -0.885 
 H                     4.063    -0.472     0. 
 C                     2.13632  -5.91355   0.43541 
 C                     2.72621  -4.70477   0.05148 
 C                     3.16748  -3.79258   1.01467 
 C                     3.00244  -4.12292   2.35889 
 C                     2.41858  -5.31912   2.773 
 C                     1.98466  -6.21633   1.79256 
 H                     1.79638  -6.61634  -0.31952 
 H                     2.84528  -4.46697  -1.00177 
 H                     3.62756  -2.84961   0.74531 
 H                     2.31347  -5.52824   3.83066 
 H                     1.5269   -7.15433   2.09364 
 N                     3.46571  -3.16515   3.38771 
 O                     3.30885  -3.47976   4.56544 
 O                     3.97692  -2.11798   2.99689 
 
 ITRead=  0  0  0  0  0  0  0  0  0  0  0  0  0  0  0  0  0  0  0  0
 ITRead=  0  0  0  0  0  0  0  0  0  0  0  0  0  0
 MicOpt= -1 -1 -1 -1 -1 -1 -1 -1 -1 -1 -1 -1 -1 -1 -1 -1 -1 -1 -1 -1
 MicOpt= -1 -1 -1 -1 -1 -1 -1 -1 -1 -1 -1 -1 -1 -1
 NAtoms=     34 NQM=       34 NQMF=       0 NMMI=      0 NMMIF=      0
                NMic=       0 NMicF=      0.
                    Isotopes and Nuclear Properties:
 (Nuclear quadrupole moments (NQMom) in fm**2, nuclear magnetic moments (NMagM)
  in nuclear magnetons)

  Atom         1           2           3           4           5           6           7           8           9          10
 IAtWgt=          12          12          12           1           1           1           1           1           1           1
 AtmWgt=  12.0000000  12.0000000  12.0000000   1.0078250   1.0078250   1.0078250   1.0078250   1.0078250   1.0078250   1.0078250
 NucSpn=           0           0           0           1           1           1           1           1           1           1
 AtZEff=  -0.0000000  -0.0000000  -0.0000000  -0.0000000  -0.0000000  -0.0000000  -0.0000000  -0.0000000  -0.0000000  -0.0000000
 NQMom=    0.0000000   0.0000000   0.0000000   0.0000000   0.0000000   0.0000000   0.0000000   0.0000000   0.0000000   0.0000000
 NMagM=    0.0000000   0.0000000   0.0000000   2.7928460   2.7928460   2.7928460   2.7928460   2.7928460   2.7928460   2.7928460
 AtZNuc=   6.0000000   6.0000000   6.0000000   1.0000000   1.0000000   1.0000000   1.0000000   1.0000000   1.0000000   1.0000000

  Atom        11          12          13          14          15          16          17          18          19          20
 IAtWgt=          12          12          12           1           1           1           1           1           1           1
 AtmWgt=  12.0000000  12.0000000  12.0000000   1.0078250   1.0078250   1.0078250   1.0078250   1.0078250   1.0078250   1.0078250
 NucSpn=           0           0           0           1           1           1           1           1           1           1
 AtZEff=  -0.0000000  -0.0000000  -0.0000000  -0.0000000  -0.0000000  -0.0000000  -0.0000000  -0.0000000  -0.0000000  -0.0000000
 NQMom=    0.0000000   0.0000000   0.0000000   0.0000000   0.0000000   0.0000000   0.0000000   0.0000000   0.0000000   0.0000000
 NMagM=    0.0000000   0.0000000   0.0000000   2.7928460   2.7928460   2.7928460   2.7928460   2.7928460   2.7928460   2.7928460
 AtZNuc=   6.0000000   6.0000000   6.0000000   1.0000000   1.0000000   1.0000000   1.0000000   1.0000000   1.0000000   1.0000000

  Atom        21          22          23          24          25          26          27          28          29          30
 IAtWgt=          12          12          12          12          12          12           1           1           1           1
 AtmWgt=  12.0000000  12.0000000  12.0000000  12.0000000  12.0000000  12.0000000   1.0078250   1.0078250   1.0078250   1.0078250
 NucSpn=           0           0           0           0           0           0           1           1           1           1
 AtZEff=  -0.0000000  -0.0000000  -0.0000000  -0.0000000  -0.0000000  -0.0000000  -0.0000000  -0.0000000  -0.0000000  -0.0000000
 NQMom=    0.0000000   0.0000000   0.0000000   0.0000000   0.0000000   0.0000000   0.0000000   0.0000000   0.0000000   0.0000000
 NMagM=    0.0000000   0.0000000   0.0000000   0.0000000   0.0000000   0.0000000   2.7928460   2.7928460   2.7928460   2.7928460
 AtZNuc=   6.0000000   6.0000000   6.0000000   6.0000000   6.0000000   6.0000000   1.0000000   1.0000000   1.0000000   1.0000000

  Atom        31          32          33          34
 IAtWgt=           1          14          16          16
 AtmWgt=   1.0078250  14.0030740  15.9949146  15.9949146
 NucSpn=           1           2           0           0
 AtZEff=  -0.0000000  -0.0000000  -0.0000000  -0.0000000
 NQMom=    0.0000000   2.0440000   0.0000000   0.0000000
 NMagM=    2.7928460   0.4037610   0.0000000   0.0000000
 AtZNuc=   1.0000000   7.0000000   8.0000000   8.0000000
 Leave Link  101 at Wed May  5 17:06:46 2021, MaxMem=   524288000 cpu:               0.3 elap:               0.2
 (Enter /opt/gaussian/g16_legacy/l202.exe)
                          Input orientation:                          
 ---------------------------------------------------------------------
 Center     Atomic      Atomic             Coordinates (Angstroms)
 Number     Number       Type             X           Y           Z
 ---------------------------------------------------------------------
      1          6           0       -0.666000   -0.374000    0.000000
      2          6           0       -1.882000    0.553000    0.000000
      3          6           0       -3.207000   -0.210000    0.000000
      4          1           0       -0.713000   -1.030000   -0.880000
      5          1           0       -0.713000   -1.029000    0.881000
      6          1           0       -1.832000    1.207000   -0.880000
      7          1           0       -1.832000    1.207000    0.880000
      8          1           0       -3.283000   -0.850000    0.885000
      9          1           0       -3.283000   -0.850000   -0.885000
     10          1           0       -4.063000    0.472000    0.000000
     11          6           0        0.666000    0.374000    0.000000
     12          6           0        1.882000   -0.553000    0.000000
     13          6           0        3.207000    0.210000    0.000000
     14          1           0        0.713000    1.029000   -0.881000
     15          1           0        0.713000    1.030000    0.880000
     16          1           0        1.832000   -1.207000   -0.880000
     17          1           0        1.832000   -1.207000    0.880000
     18          1           0        3.283000    0.850000    0.885000
     19          1           0        3.283000    0.850000   -0.885000
     20          1           0        4.063000   -0.472000    0.000000
     21          6           0        2.136319   -5.913545    0.435411
     22          6           0        2.726209   -4.704767    0.051476
     23          6           0        3.167484   -3.792580    1.014668
     24          6           0        3.002443   -4.122917    2.358889
     25          6           0        2.418583   -5.319123    2.773000
     26          6           0        1.984656   -6.216332    1.792555
     27          1           0        1.796380   -6.616336   -0.319521
     28          1           0        2.845281   -4.466968   -1.001766
     29          1           0        3.627564   -2.849611    0.745310
     30          1           0        2.313466   -5.528238    3.830657
     31          1           0        1.526897   -7.154333    2.093645
     32          7           0        3.465711   -3.165154    3.387710
     33          8           0        3.308845   -3.479765    4.565441
     34          8           0        3.976916   -2.117984    2.996888
 ---------------------------------------------------------------------
                    Distance matrix (angstroms):
                    1          2          3          4          5
     1  C    0.000000
     2  C    1.529047   0.000000
     3  C    2.546287   1.528985   0.000000
     4  H    1.098610   2.155655   2.768905   0.000000
     5  H    1.098815   2.155330   2.768927   1.761000   0.000000
     6  H    2.152561   1.097550   2.161692   2.501266   3.058264
     7  H    2.152561   1.097550   2.161692   3.058420   2.500372
     8  H    2.803300   2.171275   1.094806   3.122903   2.576229
     9  H    2.803300   2.171275   1.094806   2.576301   3.123411
    10  H    3.500761   2.182504   1.094468   3.775302   3.775137
    11  C    1.527654   2.554280   3.916782   2.155750   2.155507
    12  C    2.554280   3.923128   5.100546   2.781358   2.781504
    13  C    3.916782   5.100546   6.427736   4.204569   4.204484
    14  H    2.155507   2.781504   4.204484   2.504587   3.061615
    15  H    2.155750   2.781358   4.204569   3.061809   2.504587
    16  H    2.776381   4.203070   5.211519   2.551148   3.099973
    17  H    2.776381   4.203070   5.211519   3.099347   2.551217
    18  H    4.228002   5.248682   6.635279   4.755801   4.415730
    19  H    4.228002   5.248682   6.635279   4.416157   4.755777
    20  H    4.730015   6.032715   7.274720   4.888347   4.888413
    21  C    6.223274   7.625790   7.827584   5.804992   5.672385
    22  C    5.501388   6.991592   7.443692   5.118566   5.101718
    23  C    5.235632   6.738761   7.382308   5.126380   4.765857
    24  C    5.751192   7.161448   7.709245   5.819025   5.055788
    25  C    6.454334   7.788862   8.089490   6.445758   5.638407
    26  C    6.661237   7.999259   8.138954   6.427903   5.917490
    27  H    6.718048   8.064239   8.134928   6.149656   6.241519
    28  H    5.484981   6.967840   7.466955   4.948630   5.293940
    29  H    5.011869   6.518324   7.364394   4.979268   4.708878
    30  H    7.079359   8.322099   8.569313   7.182195   6.172772
    31  H    7.427319   8.683715   8.661229   7.167089   6.633804
    32  N    6.028114   7.341612   8.045781   6.343016   5.320561
    33  O    6.803559   8.003207   8.601793   7.199265   5.979682
    34  O    5.794781   7.102281   8.014386   6.181366   5.259105
                    6          7          8          9         10
     6  H    0.000000
     7  H    1.760000   0.000000
     8  H    3.074390   2.517275   0.000000
     9  H    2.517275   3.074390   1.770000   0.000000
    10  H    2.508383   2.508383   1.771810   1.771810   0.000000
    11  C    2.776381   2.776381   4.228002   4.228002   4.730015
    12  C    4.203070   4.203070   5.248682   5.248682   6.032715
    13  C    5.211519   5.211519   6.635279   6.635279   7.274720
    14  H    2.551217   3.099973   4.755777   4.415730   4.888413
    15  H    3.099347   2.551148   4.416157   4.755801   4.888347
    16  H    4.387743   4.727567   5.422721   5.127446   6.192291
    17  H    4.727567   4.387743   5.127446   5.422721   6.192291
    18  H    5.422721   5.127446   6.782504   7.009654   7.408767
    19  H    5.127446   5.422721   7.009654   6.782504   7.408767
    20  H    6.192291   6.192291   7.408767   7.408767   8.180649
    21  C    8.257120   8.163784   7.430386   7.533392   8.910461
    22  C    7.522892   7.510840   7.187808   7.200473   8.537852
    23  C    7.319864   7.071688   7.091145   7.340045   8.455536
    24  C    7.891151   7.346221   7.238172   7.793689   8.752034
    25  C    8.602450   8.015060   7.486364   8.115545   9.123462
    26  C    8.764432   8.396754   7.574257   7.982169   9.193540
    27  H    8.641983   8.706812   7.778278   7.705225   9.202116
    28  H    7.354298   7.590251   7.361941   7.117016   8.551099
    29  H    6.993180   6.803019   7.195405   7.376466   8.410313
    30  H    9.205358   8.441250   7.866590   8.685837   9.556993
    31  H    9.488764   9.092140   8.021256   8.470658   9.684588
    32  N    8.086706   7.312324   7.560992   8.316315   9.021472
    33  O    8.834415   7.872517   7.994606   8.948485   9.529103
    34  O    7.734939   7.019988   7.666436   8.329659   8.962678
                   11         12         13         14         15
    11  C    0.000000
    12  C    1.529047   0.000000
    13  C    2.546287   1.528985   0.000000
    14  H    1.098815   2.155330   2.768927   0.000000
    15  H    1.098610   2.155655   2.768905   1.761000   0.000000
    16  H    2.152561   1.097550   2.161692   2.500372   3.058420
    17  H    2.152561   1.097550   2.161692   3.058264   2.501266
    18  H    2.803300   2.171275   1.094806   3.123411   2.576301
    19  H    2.803300   2.171275   1.094806   2.576229   3.122903
    20  H    3.500761   2.182504   1.094468   3.775137   3.775302
    21  C    6.471835   5.384209   6.231673   7.208169   7.101853
    22  C    5.480966   4.237040   4.938496   6.148057   6.134086
    23  C    4.964611   3.630000   4.129378   5.732860   5.412939
    24  C    5.589775   4.423128   4.937648   6.502359   5.829341
    25  C    6.570596   5.540161   6.235570   7.520598   6.841332
    26  C    6.955903   5.941138   6.782708   7.826867   7.413447
    27  H    7.088346   6.072353   6.977880   7.742101   7.815307
    28  H    5.402571   4.153383   4.796708   5.896344   6.189049
    29  H    4.440497   2.979413   3.177040   5.116951   4.854298
    30  H    7.226651   6.293893   6.956990   8.231560   7.367384
    31  H    7.861316   6.934482   7.838335   8.745163   8.313764
    32  N    5.642745   4.561586   4.789068   6.587126   5.609398
    33  O    6.532946   5.607592   5.870945   7.532005   6.376431
    34  O    5.114048   3.977334   3.872159   5.966127   5.004415
                   16         17         18         19         20
    16  H    0.000000
    17  H    1.760000   0.000000
    18  H    3.074390   2.517275   0.000000
    19  H    2.517275   3.074390   1.770000   0.000000
    20  H    2.508383   2.508383   1.771810   1.771810   0.000000
    21  C    4.896374   4.737281   6.874776   6.985979   5.788963
    22  C    3.728489   3.704111   5.644485   5.660604   4.439141
    23  C    3.472536   2.913224   4.645827   5.017532   3.585771
    24  C    4.512528   3.472697   5.194320   5.944025   4.474185
    25  C    5.531550   4.564766   6.509212   7.224006   5.821360
    26  C    5.679724   5.094062   7.241713   7.667336   6.366327
    27  H    5.438412   5.540852   7.707599   7.633870   6.556869
    28  H    3.415985   3.898099   5.658766   5.336233   4.294897
    29  H    2.926406   2.437286   3.718247   4.057555   2.529452
    30  H    6.410554   5.254644   7.092165   7.991204   6.580300
    31  H    6.656307   6.077565   8.283361   8.719264   7.447734
    32  N    4.971592   3.576589   4.734808   5.866080   4.368800
    33  O    6.082710   4.574823   5.682709   6.960951   5.518936
    34  O    4.523363   3.148297   3.708169   4.935535   3.420236
                   21         22         23         24         25
    21  C    0.000000
    22  C    1.398757   0.000000
    23  C    2.428442   1.398051   0.000000
    24  C    2.767000   2.395623   1.394020   0.000000
    25  C    2.428442   2.806913   2.446000   1.394019   0.000000
    26  C    1.398757   2.422000   2.806914   2.395623   1.398052
    27  H    1.086000   2.157850   3.410804   3.853000   3.410804
    28  H    2.158863   1.086299   2.150493   3.381874   3.893212
    29  H    3.421628   2.176109   1.083244   2.148423   3.416380
    30  H    3.421628   3.889816   3.416380   2.148422   1.083244
    31  H    2.158863   3.407224   3.893212   3.381874   2.150494
    32  N    4.247000   3.748030   2.472636   1.480000   2.472636
    33  O    4.935104   4.713383   3.567327   2.318706   2.718207
    34  O    4.935103   4.114750   2.718207   2.318706   3.567327
                   26         27         28         29         30
    26  C    0.000000
    27  H    2.157850   0.000000
    28  H    3.407225   2.487053   0.000000
    29  H    3.889817   4.321495   2.506010   0.000000
    30  H    2.176109   4.321494   4.976086   4.292000   0.000000
    31  H    1.086298   2.487053   4.306000   4.976087   2.506010
    32  N    3.748030   5.333000   4.620298   2.666091   2.666090
    33  O    4.114751   5.999040   5.673029   3.884852   2.393100
    34  O    4.713382   5.999040   4.773631   2.393100   3.884851
                   31         32         33         34
    31  H    0.000000
    32  N    4.620298   0.000000
    33  O    4.773632   1.229080   0.000000
    34  O    5.673028   1.229080   2.182000   0.000000
 Stoichiometry    C12H19NO2
 Framework group  C1[X(C12H19NO2)]
 Deg. of freedom    96
 Full point group                 C1      NOp   1
 Largest Abelian subgroup         C1      NOp   1
 Largest concise Abelian subgroup C1      NOp   1
                         Standard orientation:                         
 ---------------------------------------------------------------------
 Center     Atomic      Atomic             Coordinates (Angstroms)
 Number     Number       Type             X           Y           Z
 ---------------------------------------------------------------------
      1          6           0       -3.280466    0.434630   -0.091095
      2          6           0       -4.667799    0.621875   -0.706101
      3          6           0       -4.925271    2.059933   -1.157203
      4          1           0       -3.171211    1.114164    0.765200
      5          1           0       -2.518555    0.731648   -0.825033
      6          1           0       -5.426827    0.323282    0.028293
      7          1           0       -4.773834   -0.058321   -1.560915
      8          1           0       -4.189933    2.365497   -1.908542
      9          1           0       -4.846636    2.749267   -0.310305
     10          1           0       -5.922705    2.171254   -1.593771
     11          6           0       -3.008173   -0.997780    0.364741
     12          6           0       -1.620840   -1.185026    0.979747
     13          6           0       -1.363369   -2.623084    1.430848
     14          1           0       -3.770085   -1.294799    1.098679
     15          1           0       -3.117428   -1.677314   -0.491555
     16          1           0       -1.514805   -0.504830    1.834560
     17          1           0       -0.861812   -0.886433    0.245353
     18          1           0       -1.442003   -3.312418    0.583951
     19          1           0       -2.098706   -2.928647    2.182187
     20          1           0       -0.365934   -2.734405    1.867417
     21          6           0        2.485560    2.277274    1.353458
     22          6           0        1.842978    1.115431    1.793606
     23          6           0        1.820589   -0.030342    0.992824
     24          6           0        2.453690    0.021089   -0.248074
     25          6           0        3.102203    1.163512   -0.714541
     26          6           0        3.112018    2.297571    0.102994
     27          1           0        2.498069    3.162787    1.982032
     28          1           0        1.355636    1.096782    2.764273
     29          1           0        1.330440   -0.943169    1.308921
     30          1           0        3.579290    1.151687   -1.686994
     31          1           0        3.611822    3.198472   -0.241414
     32          7           0        2.436643   -1.185688   -1.104694
     33          8           0        3.001769   -1.114699   -2.193837
     34          8           0        1.858481   -2.179698   -0.670750
 ---------------------------------------------------------------------
 Rotational constants (GHZ):           0.6332317           0.2435319           0.2182301
 Leave Link  202 at Wed May  5 17:06:46 2021, MaxMem=   524288000 cpu:               0.1 elap:               0.1
 (Enter /opt/gaussian/g16_legacy/l301.exe)
 Standard basis: 6-31G(d) (6D, 7F)
 Ernie: Thresh=  0.10000D-02 Tol=  0.10000D-05 Strict=F.
 There are   263 symmetry adapted cartesian basis functions of A   symmetry.
 There are   263 symmetry adapted basis functions of A   symmetry.
   263 basis functions,   496 primitive gaussians,   263 cartesian basis functions
    57 alpha electrons       57 beta electrons
       nuclear repulsion energy       938.8159375176 Hartrees.
 IExCor=    0 DFT=F Ex=HF Corr=None ExCW=0 ScaHFX=  1.000000
 ScaDFX=  1.000000  1.000000  1.000000  1.000000 ScalE2=  1.000000  1.000000
 IRadAn=      5 IRanWt=     -1 IRanGd=            0 ICorTp=0 IEmpDi=  4
 NAtoms=   34 NActive=   34 NUniq=   34 SFac= 1.00D+00 NAtFMM=   60 NAOKFM=F Big=F
 Integral buffers will be    131072 words long.
 Raffenetti 1 integral format.
 Two-electron integral symmetry is turned on.
 Leave Link  301 at Wed May  5 17:06:47 2021, MaxMem=   524288000 cpu:               0.3 elap:               0.2
 (Enter /opt/gaussian/g16_legacy/l302.exe)
 NPDir=0 NMtPBC=     1 NCelOv=     1 NCel=       1 NClECP=     1 NCelD=      1
         NCelK=      1 NCelE2=     1 NClLst=     1 CellRange=     0.0.
 One-electron integrals computed using PRISM.
 One-electron integral symmetry used in STVInt
 NBasis=   263 RedAO= T EigKep=  4.66D-04  NBF=   263
 NBsUse=   263 1.00D-06 EigRej= -1.00D+00 NBFU=   263
 Leave Link  302 at Wed May  5 17:06:48 2021, MaxMem=   524288000 cpu:               0.9 elap:               0.8
 (Enter /opt/gaussian/g16_legacy/l303.exe)
 DipDrv:  MaxL=1.
 Leave Link  303 at Wed May  5 17:06:48 2021, MaxMem=   524288000 cpu:               0.2 elap:               0.2
 (Enter /opt/gaussian/g16_legacy/l401.exe)
 ExpMin= 1.61D-01 ExpMax= 5.48D+03 ExpMxC= 8.25D+02 IAcc=3 IRadAn=         5 AccDes= 0.00D+00
 Harris functional with IExCor=  205 and IRadAn=       5 diagonalized for initial guess.
 HarFok:  IExCor=  205 AccDes= 0.00D+00 IRadAn=         5 IDoV= 1 UseB2=F ITyADJ=14
 ICtDFT=  3500011 ScaDFX=  1.000000  1.000000  1.000000  1.000000
 FoFCou: FMM=F IPFlag=           0 FMFlag=      100000 FMFlg1=           0
         NFxFlg=           0 DoJE=T BraDBF=F KetDBF=T FulRan=T
         wScrn=  0.000000 ICntrl=       500 IOpCl=  0 I1Cent=   200000004 NGrid=           0
         NMat0=    1 NMatS0=      1 NMatT0=    0 NMatD0=    1 NMtDS0=    0 NMtDT0=    0
 Petite list used in FoFCou.
 Harris En= -670.656686529427    
 JPrj=0 DoOrth=F DoCkMO=F.
 Leave Link  401 at Wed May  5 17:06:56 2021, MaxMem=   524288000 cpu:              14.6 elap:               8.0
 (Enter /opt/gaussian/g16_legacy/l502.exe)
 Integral symmetry usage will be decided dynamically.
 Closed shell SCF:
 Using DIIS extrapolation, IDIIS=  1040.
 NGot=   524288000 LenX=   524144919 LenY=   524075309
 Requested convergence on RMS density matrix=1.00D-08 within 128 cycles.
 Requested convergence on MAX density matrix=1.00D-06.
 Requested convergence on             energy=1.00D-06.
 No special actions if energy rises.
 Fock matrices will be formed incrementally for  20 cycles.
 Integral accuracy reduced to 1.0D-05 until final iterations.

 Cycle   1  Pass 0  IDiag  1:
 FoFJK:  IHMeth= 1 ICntrl=       0 DoSepK=F KAlg= 0 I1Cent=           0 FoldK=F
 IRaf= 790000000 NMat=       1 IRICut=       1 DoRegI=T DoRafI=F ISym2E= 0 IDoP0=0 IntGTp=1.
 FoFCou: FMM=F IPFlag=           0 FMFlag=      100000 FMFlg1=           0
         NFxFlg=           0 DoJE=F BraDBF=F KetDBF=F FulRan=T
         wScrn=  0.000000 ICntrl=         0 IOpCl=  0 I1Cent=           0 NGrid=           0
         NMat0=    1 NMatS0=      1 NMatT0=    0 NMatD0=    1 NMtDS0=    0 NMtDT0=    0
 Symmetry not used in FoFCou.
 E= -668.740770472262    
 DIIS: error= 6.25D-02 at cycle   1 NSaved=   1.
 NSaved= 1 IEnMin= 1 EnMin= -668.740770472262     IErMin= 1 ErrMin= 6.25D-02
 ErrMax= 6.25D-02  0.00D+00 EMaxC= 1.00D-01 BMatC= 1.17D+00 BMatP= 1.17D+00
 IDIUse=3 WtCom= 3.75D-01 WtEn= 6.25D-01
 Coeff-Com:  0.100D+01
 Coeff-En:   0.100D+01
 Coeff:      0.100D+01
 Gap=     0.555 Goal=   None    Shift=    0.000
 GapD=    0.555 DampG=2.000 DampE=0.500 DampFc=1.0000 IDamp=-1.
 RMSDP=4.61D-03 MaxDP=1.18D-01              OVMax= 1.51D-01

 Cycle   2  Pass 0  IDiag  1:
 RMSU=  4.48D-03    CP:  9.48D-01
 E= -669.357549102531     Delta-E=       -0.616778630268 Rises=F Damp=F
 DIIS: error= 2.76D-02 at cycle   2 NSaved=   2.
 NSaved= 2 IEnMin= 2 EnMin= -669.357549102531     IErMin= 2 ErrMin= 2.76D-02
 ErrMax= 2.76D-02  0.00D+00 EMaxC= 1.00D-01 BMatC= 2.18D-01 BMatP= 1.17D+00
 IDIUse=3 WtCom= 7.24D-01 WtEn= 2.76D-01
 Coeff-Com:  0.247D+00 0.753D+00
 Coeff-En:   0.000D+00 0.100D+01
 Coeff:      0.178D+00 0.822D+00
 Gap=     0.565 Goal=   None    Shift=    0.000
 RMSDP=1.81D-03 MaxDP=8.31D-02 DE=-6.17D-01 OVMax= 1.03D-01

 Cycle   3  Pass 0  IDiag  1:
 RMSU=  1.44D-03    CP:  9.57D-01  7.58D-01
 E= -669.506924461860     Delta-E=       -0.149375359330 Rises=F Damp=F
 DIIS: error= 1.37D-02 at cycle   3 NSaved=   3.
 NSaved= 3 IEnMin= 3 EnMin= -669.506924461860     IErMin= 3 ErrMin= 1.37D-02
 ErrMax= 1.37D-02  0.00D+00 EMaxC= 1.00D-01 BMatC= 3.60D-02 BMatP= 2.18D-01
 IDIUse=3 WtCom= 8.63D-01 WtEn= 1.37D-01
 Coeff-Com: -0.943D-02 0.268D+00 0.741D+00
 Coeff-En:   0.000D+00 0.000D+00 0.100D+01
 Coeff:     -0.814D-02 0.231D+00 0.777D+00
 Gap=     0.425 Goal=   None    Shift=    0.000
 RMSDP=5.97D-04 MaxDP=3.19D-02 DE=-1.49D-01 OVMax= 5.00D-02

 Cycle   4  Pass 0  IDiag  1:
 RMSU=  4.00D-04    CP:  9.55D-01  8.35D-01  8.08D-01
 E= -669.532314848077     Delta-E=       -0.025390386217 Rises=F Damp=F
 DIIS: error= 4.27D-03 at cycle   4 NSaved=   4.
 NSaved= 4 IEnMin= 4 EnMin= -669.532314848077     IErMin= 4 ErrMin= 4.27D-03
 ErrMax= 4.27D-03  0.00D+00 EMaxC= 1.00D-01 BMatC= 2.92D-03 BMatP= 3.60D-02
 IDIUse=3 WtCom= 9.57D-01 WtEn= 4.27D-02
 Coeff-Com: -0.133D-01 0.432D-01 0.291D+00 0.679D+00
 Coeff-En:   0.000D+00 0.000D+00 0.000D+00 0.100D+01
 Coeff:     -0.127D-01 0.413D-01 0.279D+00 0.692D+00
 Gap=     0.411 Goal=   None    Shift=    0.000
 RMSDP=1.72D-04 MaxDP=8.85D-03 DE=-2.54D-02 OVMax= 1.43D-02

 Cycle   5  Pass 0  IDiag  1:
 RMSU=  9.81D-05    CP:  9.54D-01  8.37D-01  8.79D-01  7.62D-01
 E= -669.534677176305     Delta-E=       -0.002362328228 Rises=F Damp=F
 DIIS: error= 5.09D-04 at cycle   5 NSaved=   5.
 NSaved= 5 IEnMin= 5 EnMin= -669.534677176305     IErMin= 5 ErrMin= 5.09D-04
 ErrMax= 5.09D-04  0.00D+00 EMaxC= 1.00D-01 BMatC= 6.01D-05 BMatP= 2.92D-03
 IDIUse=3 WtCom= 9.95D-01 WtEn= 5.09D-03
 Coeff-Com:  0.205D-02-0.194D-01-0.768D-01-0.333D-01 0.113D+01
 Coeff-En:   0.000D+00 0.000D+00 0.000D+00 0.000D+00 0.100D+01
 Coeff:      0.204D-02-0.193D-01-0.764D-01-0.331D-01 0.113D+01
 Gap=     0.413 Goal=   None    Shift=    0.000
 RMSDP=5.37D-05 MaxDP=1.54D-03 DE=-2.36D-03 OVMax= 4.81D-03

 Cycle   6  Pass 0  IDiag  1:
 RMSU=  2.50D-05    CP:  9.54D-01  8.39D-01  8.92D-01  8.47D-01  1.25D+00
 E= -669.534790284081     Delta-E=       -0.000113107775 Rises=F Damp=F
 DIIS: error= 1.87D-04 at cycle   6 NSaved=   6.
 NSaved= 6 IEnMin= 6 EnMin= -669.534790284081     IErMin= 6 ErrMin= 1.87D-04
 ErrMax= 1.87D-04  0.00D+00 EMaxC= 1.00D-01 BMatC= 6.09D-06 BMatP= 6.01D-05
 IDIUse=3 WtCom= 9.98D-01 WtEn= 1.87D-03
 Coeff-Com:  0.127D-02-0.660D-02-0.343D-01-0.531D-01 0.140D+00 0.952D+00
 Coeff-En:   0.000D+00 0.000D+00 0.000D+00 0.000D+00 0.000D+00 0.100D+01
 Coeff:      0.127D-02-0.658D-02-0.342D-01-0.530D-01 0.140D+00 0.952D+00
 Gap=     0.413 Goal=   None    Shift=    0.000
 RMSDP=1.78D-05 MaxDP=5.07D-04 DE=-1.13D-04 OVMax= 1.77D-03

 Cycle   7  Pass 0  IDiag  1:
 RMSU=  8.99D-06    CP:  9.54D-01  8.40D-01  8.96D-01  8.59D-01  1.38D+00
                    CP:  1.19D+00
 E= -669.534806228179     Delta-E=       -0.000015944098 Rises=F Damp=F
 DIIS: error= 1.34D-04 at cycle   7 NSaved=   7.
 NSaved= 7 IEnMin= 7 EnMin= -669.534806228179     IErMin= 7 ErrMin= 1.34D-04
 ErrMax= 1.34D-04  0.00D+00 EMaxC= 1.00D-01 BMatC= 1.22D-06 BMatP= 6.09D-06
 IDIUse=3 WtCom= 9.99D-01 WtEn= 1.34D-03
 Coeff-Com: -0.274D-03 0.257D-02 0.102D-01 0.654D-02-0.158D+00 0.257D-02
 Coeff-Com:  0.114D+01
 Coeff-En:   0.000D+00 0.000D+00 0.000D+00 0.000D+00 0.000D+00 0.000D+00
 Coeff-En:   0.100D+01
 Coeff:     -0.274D-03 0.257D-02 0.102D-01 0.654D-02-0.158D+00 0.257D-02
 Coeff:      0.114D+01
 Gap=     0.413 Goal=   None    Shift=    0.000
 RMSDP=9.36D-06 MaxDP=3.88D-04 DE=-1.59D-05 OVMax= 1.42D-03

 Initial convergence to 1.0D-05 achieved.  Increase integral accuracy.
 Cycle   8  Pass 1  IDiag  1:
 E= -669.534811931550     Delta-E=       -0.000005703371 Rises=F Damp=F
 DIIS: error= 5.09D-05 at cycle   1 NSaved=   1.
 NSaved= 1 IEnMin= 1 EnMin= -669.534811931550     IErMin= 1 ErrMin= 5.09D-05
 ErrMax= 5.09D-05  0.00D+00 EMaxC= 1.00D-01 BMatC= 4.22D-07 BMatP= 4.22D-07
 IDIUse=1 WtCom= 1.00D+00 WtEn= 0.00D+00
 Coeff-Com:  0.100D+01
 Coeff:      0.100D+01
 Gap=     0.413 Goal=   None    Shift=    0.000
 RMSDP=9.36D-06 MaxDP=3.88D-04 DE=-5.70D-06 OVMax= 5.54D-04

 Cycle   9  Pass 1  IDiag  1:
 RMSU=  1.56D-05    CP:  1.00D+00
 E= -669.534813034271     Delta-E=       -0.000001102721 Rises=F Damp=F
 DIIS: error= 4.61D-05 at cycle   2 NSaved=   2.
 NSaved= 2 IEnMin= 2 EnMin= -669.534813034271     IErMin= 2 ErrMin= 4.61D-05
 ErrMax= 4.61D-05  0.00D+00 EMaxC= 1.00D-01 BMatC= 1.24D-07 BMatP= 4.22D-07
 IDIUse=1 WtCom= 1.00D+00 WtEn= 0.00D+00
 Coeff-Com:  0.556D-02 0.994D+00
 Coeff:      0.556D-02 0.994D+00
 Gap=     0.413 Goal=   None    Shift=    0.000
 RMSDP=2.45D-06 MaxDP=8.32D-05 DE=-1.10D-06 OVMax= 3.97D-04

 Cycle  10  Pass 1  IDiag  1:
 RMSU=  2.20D-06    CP:  1.00D+00  1.07D+00
 E= -669.534813471222     Delta-E=       -0.000000436951 Rises=F Damp=F
 DIIS: error= 2.32D-05 at cycle   3 NSaved=   3.
 NSaved= 3 IEnMin= 3 EnMin= -669.534813471222     IErMin= 3 ErrMin= 2.32D-05
 ErrMax= 2.32D-05  0.00D+00 EMaxC= 1.00D-01 BMatC= 5.77D-08 BMatP= 1.24D-07
 IDIUse=1 WtCom= 1.00D+00 WtEn= 0.00D+00
 Coeff-Com: -0.316D+00 0.130D+00 0.119D+01
 Coeff:     -0.316D+00 0.130D+00 0.119D+01
 Gap=     0.413 Goal=   None    Shift=    0.000
 RMSDP=2.41D-06 MaxDP=6.69D-05 DE=-4.37D-07 OVMax= 3.64D-04

 Cycle  11  Pass 1  IDiag  1:
 RMSU=  1.48D-06    CP:  1.00D+00  1.12D+00  1.79D+00
 E= -669.534813753046     Delta-E=       -0.000000281824 Rises=F Damp=F
 DIIS: error= 1.23D-05 at cycle   4 NSaved=   4.
 NSaved= 4 IEnMin= 4 EnMin= -669.534813753046     IErMin= 4 ErrMin= 1.23D-05
 ErrMax= 1.23D-05  0.00D+00 EMaxC= 1.00D-01 BMatC= 1.07D-08 BMatP= 5.77D-08
 IDIUse=1 WtCom= 1.00D+00 WtEn= 0.00D+00
 Coeff-Com: -0.715D-02-0.345D+00-0.518D-02 0.136D+01
 Coeff:     -0.715D-02-0.345D+00-0.518D-02 0.136D+01
 Gap=     0.413 Goal=   None    Shift=    0.000
 RMSDP=1.71D-06 MaxDP=4.66D-05 DE=-2.82D-07 OVMax= 2.63D-04

 Cycle  12  Pass 1  IDiag  1:
 RMSU=  2.72D-07    CP:  1.00D+00  1.13D+00  2.49D+00  1.47D+00
 E= -669.534813819562     Delta-E=       -0.000000066516 Rises=F Damp=F
 DIIS: error= 2.40D-06 at cycle   5 NSaved=   5.
 NSaved= 5 IEnMin= 5 EnMin= -669.534813819562     IErMin= 5 ErrMin= 2.40D-06
 ErrMax= 2.40D-06  0.00D+00 EMaxC= 1.00D-01 BMatC= 1.38D-09 BMatP= 1.07D-08
 IDIUse=1 WtCom= 1.00D+00 WtEn= 0.00D+00
 Coeff-Com:  0.191D-01-0.162D+00-0.801D-01 0.601D+00 0.621D+00
 Coeff:      0.191D-01-0.162D+00-0.801D-01 0.601D+00 0.621D+00
 Gap=     0.413 Goal=   None    Shift=    0.000
 RMSDP=1.79D-07 MaxDP=7.30D-06 DE=-6.65D-08 OVMax= 2.38D-05

 Cycle  13  Pass 1  IDiag  1:
 RMSU=  9.41D-08    CP:  1.00D+00  1.13D+00  2.54D+00  1.52D+00  8.10D-01
 E= -669.534813821158     Delta-E=       -0.000000001596 Rises=F Damp=F
 DIIS: error= 6.86D-07 at cycle   6 NSaved=   6.
 NSaved= 6 IEnMin= 6 EnMin= -669.534813821158     IErMin= 6 ErrMin= 6.86D-07
 ErrMax= 6.86D-07  0.00D+00 EMaxC= 1.00D-01 BMatC= 4.35D-11 BMatP= 1.38D-09
 IDIUse=1 WtCom= 1.00D+00 WtEn= 0.00D+00
 Coeff-Com: -0.145D-02 0.472D-01 0.106D-01-0.185D+00-0.974D-01 0.123D+01
 Coeff:     -0.145D-02 0.472D-01 0.106D-01-0.185D+00-0.974D-01 0.123D+01
 Gap=     0.413 Goal=   None    Shift=    0.000
 RMSDP=5.62D-08 MaxDP=1.43D-06 DE=-1.60D-09 OVMax= 5.44D-06

 Cycle  14  Pass 1  IDiag  1:
 RMSU=  2.91D-08    CP:  1.00D+00  1.13D+00  2.55D+00  1.53D+00  9.12D-01
                    CP:  1.30D+00
 E= -669.534813821291     Delta-E=       -0.000000000133 Rises=F Damp=F
 DIIS: error= 2.62D-07 at cycle   7 NSaved=   7.
 NSaved= 7 IEnMin= 7 EnMin= -669.534813821291     IErMin= 7 ErrMin= 2.62D-07
 ErrMax= 2.62D-07  0.00D+00 EMaxC= 1.00D-01 BMatC= 7.89D-12 BMatP= 4.35D-11
 IDIUse=1 WtCom= 1.00D+00 WtEn= 0.00D+00
 Coeff-Com: -0.263D-02 0.290D-01 0.122D-01-0.112D+00-0.109D+00 0.272D+00
 Coeff-Com:  0.910D+00
 Coeff:     -0.263D-02 0.290D-01 0.122D-01-0.112D+00-0.109D+00 0.272D+00
 Coeff:      0.910D+00
 Gap=     0.413 Goal=   None    Shift=    0.000
 RMSDP=1.86D-08 MaxDP=7.34D-07 DE=-1.33D-10 OVMax= 2.12D-06

 Cycle  15  Pass 1  IDiag  1:
 RMSU=  1.01D-08    CP:  1.00D+00  1.13D+00  2.55D+00  1.54D+00  9.24D-01
                    CP:  1.43D+00  1.13D+00
 E= -669.534813821272     Delta-E=        0.000000000018 Rises=F Damp=F
 DIIS: error= 9.19D-08 at cycle   8 NSaved=   8.
 NSaved= 8 IEnMin= 7 EnMin= -669.534813821291     IErMin= 8 ErrMin= 9.19D-08
 ErrMax= 9.19D-08  0.00D+00 EMaxC= 1.00D-01 BMatC= 1.40D-12 BMatP= 7.89D-12
 IDIUse=1 WtCom= 1.00D+00 WtEn= 0.00D+00
 Coeff-Com: -0.241D-03-0.141D-02 0.133D-02 0.507D-02-0.124D-01-0.105D+00
 Coeff-Com:  0.173D+00 0.939D+00
 Coeff:     -0.241D-03-0.141D-02 0.133D-02 0.507D-02-0.124D-01-0.105D+00
 Coeff:      0.173D+00 0.939D+00
 Gap=     0.413 Goal=   None    Shift=    0.000
 RMSDP=6.62D-09 MaxDP=2.85D-07 DE= 1.84D-11 OVMax= 5.49D-07

 SCF Done:  E(RHF) =  -669.534813821     A.U. after   15 cycles
            NFock= 15  Conv=0.66D-08     -V/T= 2.0023
 KE= 6.679673377486D+02 PE=-3.440759889440D+03 EE= 1.164441800352D+03
 Leave Link  502 at Wed May  5 17:07:50 2021, MaxMem=   524288000 cpu:             105.4 elap:              53.8
 (Enter /opt/gaussian/g16_legacy/l801.exe)
 ExpMin= 1.61D-01 ExpMax= 5.48D+03 ExpMxC= 8.25D+02 IAcc=3 IRadAn=         5 AccDes= 0.00D+00
 HarFok:  IExCor=  205 AccDes= 0.00D+00 IRadAn=         5 IDoV=-2 UseB2=F ITyADJ=14
 ICtDFT= 12500011 ScaDFX=  1.000000  1.000000  1.000000  1.000000
 Largest valence mixing into a core orbital is  1.97D-04
 Largest core mixing into a valence orbital is  3.99D-05
 Range of M.O.s used for correlation:    16   263
 NBasis=   263 NAE=    57 NBE=    57 NFC=    15 NFV=     0
 NROrb=    248 NOA=    42 NOB=    42 NVA=   206 NVB=   206
 Leave Link  801 at Wed May  5 17:07:51 2021, MaxMem=   524288000 cpu:               2.0 elap:               1.1
 (Enter /opt/gaussian/g16_legacy/l906.exe)
 FulOut=F Deriv=F AODrv=F NAtomX=    34
   MMem=         113  MDisk=          42 MDiskD=          42
  W3Min=     2275476 MinDsk=     2420380 NBas6D=         263
 NBas2D=       35121    NTT=       34716    LW2=     2000000
    MDV=   523926238 MDiskM=       27562 NBas2p=       26075
 Fully direct method using O(OVN) memory.
 IMap=   1   2   3   4   5   6   7   8   9  10  11  12  13  14  15  16  17  18  19  20
 IMap=  21  22  23  24  25  26  27  28  29  30  31  32  33  34  35  36  37  38  39  40
 IMap=  41  42
 JobTyp=1 Pass  1:  I=   1 to  42 NPSUse=  2 ParTrn=T ParDer=T DoDerP=F.
 Spin components of T(2) and E(2):
     alpha-alpha T2 =       0.9512670875D-01 E2=     -0.2723553850D+00
     alpha-beta  T2 =       0.5264394947D+00 E2=     -0.1548663614D+01
     beta-beta   T2 =       0.9512670875D-01 E2=     -0.2723553850D+00
 The integrals were generated   1 times.
 ANorm=    0.1310226283D+01
 E2 =    -0.2093374384D+01 EUMP2 =    -0.67162818820530D+03
 Leave Link  906 at Wed May  5 17:09:27 2021, MaxMem=   524288000 cpu:             189.9 elap:              95.6
 (Enter /opt/gaussian/g16_legacy/l601.exe)
 Copying SCF densities to generalized density rwf, IOpCl= 0 IROHF=0.

 **********************************************************************

            Population analysis using the SCF density.

 **********************************************************************

 Orbital symmetries:
       Occupied  (A) (A) (A) (A) (A) (A) (A) (A) (A) (A) (A) (A)
                 (A) (A) (A) (A) (A) (A) (A) (A) (A) (A) (A) (A)
                 (A) (A) (A) (A) (A) (A) (A) (A) (A) (A) (A) (A)
                 (A) (A) (A) (A) (A) (A) (A) (A) (A) (A) (A) (A)
                 (A) (A) (A) (A) (A) (A) (A) (A) (A)
       Virtual   (A) (A) (A) (A) (A) (A) (A) (A) (A) (A) (A) (A)
                 (A) (A) (A) (A) (A) (A) (A) (A) (A) (A) (A) (A)
                 (A) (A) (A) (A) (A) (A) (A) (A) (A) (A) (A) (A)
                 (A) (A) (A) (A) (A) (A) (A) (A) (A) (A) (A) (A)
                 (A) (A) (A) (A) (A) (A) (A) (A) (A) (A) (A) (A)
                 (A) (A) (A) (A) (A) (A) (A) (A) (A) (A) (A) (A)
                 (A) (A) (A) (A) (A) (A) (A) (A) (A) (A) (A) (A)
                 (A) (A) (A) (A) (A) (A) (A) (A) (A) (A) (A) (A)
                 (A) (A) (A) (A) (A) (A) (A) (A) (A) (A) (A) (A)
                 (A) (A) (A) (A) (A) (A) (A) (A) (A) (A) (A) (A)
                 (A) (A) (A) (A) (A) (A) (A) (A) (A) (A) (A) (A)
                 (A) (A) (A) (A) (A) (A) (A) (A) (A) (A) (A) (A)
                 (A) (A) (A) (A) (A) (A) (A) (A) (A) (A) (A) (A)
                 (A) (A) (A) (A) (A) (A) (A) (A) (A) (A) (A) (A)
                 (A) (A) (A) (A) (A) (A) (A) (A) (A) (A) (A) (A)
                 (A) (A) (A) (A) (A) (A) (A) (A) (A) (A) (A) (A)
                 (A) (A) (A) (A) (A) (A) (A) (A) (A) (A) (A) (A)
                 (A) (A)
 The electronic state is 1-A.
 Alpha  occ. eigenvalues --  -20.60838 -20.60827 -15.85867 -11.31166 -11.27757
 Alpha  occ. eigenvalues --  -11.27700 -11.27493 -11.26748 -11.26725 -11.21602
 Alpha  occ. eigenvalues --  -11.21597 -11.21401 -11.21320 -11.21105 -11.20934
 Alpha  occ. eigenvalues --   -1.59900  -1.39455  -1.19354  -1.08759  -1.08422
 Alpha  occ. eigenvalues --   -1.04753  -1.03519  -0.95965  -0.95590  -0.86958
 Alpha  occ. eigenvalues --   -0.86156  -0.82433  -0.79613  -0.78287  -0.77460
 Alpha  occ. eigenvalues --   -0.72090  -0.71221  -0.70476  -0.65096  -0.64978
 Alpha  occ. eigenvalues --   -0.64743  -0.62176  -0.60879  -0.59303  -0.57582
 Alpha  occ. eigenvalues --   -0.55259  -0.55185  -0.53098  -0.52884  -0.52603
 Alpha  occ. eigenvalues --   -0.52343  -0.49858  -0.48849  -0.48843  -0.47922
 Alpha  occ. eigenvalues --   -0.46619  -0.45797  -0.45717  -0.44813  -0.43776
 Alpha  occ. eigenvalues --   -0.37333  -0.36297
 Alpha virt. eigenvalues --    0.05029   0.11240   0.16493   0.20615   0.22974
 Alpha virt. eigenvalues --    0.23999   0.26237   0.26596   0.27251   0.28014
 Alpha virt. eigenvalues --    0.29321   0.30325   0.31527   0.31646   0.32014
 Alpha virt. eigenvalues --    0.33764   0.34075   0.34246   0.34581   0.35156
 Alpha virt. eigenvalues --    0.36095   0.36618   0.36655   0.38181   0.40364
 Alpha virt. eigenvalues --    0.40763   0.43860   0.44351   0.45562   0.46428
 Alpha virt. eigenvalues --    0.46817   0.49160   0.50404   0.51418   0.56946
 Alpha virt. eigenvalues --    0.67288   0.68315   0.69042   0.69653   0.70485
 Alpha virt. eigenvalues --    0.71974   0.73199   0.75152   0.76296   0.77412
 Alpha virt. eigenvalues --    0.77888   0.78441   0.79003   0.79396   0.80208
 Alpha virt. eigenvalues --    0.80512   0.81857   0.84297   0.84563   0.85953
 Alpha virt. eigenvalues --    0.87056   0.87609   0.88125   0.90883   0.93777
 Alpha virt. eigenvalues --    0.95420   0.96287   0.98379   0.98955   1.01155
 Alpha virt. eigenvalues --    1.02658   1.03696   1.04569   1.06490   1.07235
 Alpha virt. eigenvalues --    1.07863   1.08549   1.09293   1.10909   1.12024
 Alpha virt. eigenvalues --    1.13329   1.14801   1.15401   1.16886   1.17045
 Alpha virt. eigenvalues --    1.17415   1.18802   1.19555   1.20457   1.20759
 Alpha virt. eigenvalues --    1.21061   1.21110   1.21336   1.21973   1.22385
 Alpha virt. eigenvalues --    1.22949   1.24122   1.25192   1.26574   1.27224
 Alpha virt. eigenvalues --    1.27881   1.29556   1.30528   1.32014   1.34510
 Alpha virt. eigenvalues --    1.36790   1.40263   1.42097   1.46719   1.47104
 Alpha virt. eigenvalues --    1.52692   1.53613   1.55975   1.60810   1.65262
 Alpha virt. eigenvalues --    1.66153   1.67011   1.67276   1.67456   1.67868
 Alpha virt. eigenvalues --    1.71909   1.72724   1.72923   1.73344   1.74170
 Alpha virt. eigenvalues --    1.75569   1.79895   1.81516   1.93231   1.97279
 Alpha virt. eigenvalues --    1.99410   2.00047   2.04518   2.04760   2.05229
 Alpha virt. eigenvalues --    2.10028   2.12512   2.12696   2.14851   2.15622
 Alpha virt. eigenvalues --    2.17906   2.21674   2.21999   2.22686   2.25037
 Alpha virt. eigenvalues --    2.25833   2.25866   2.27732   2.28181   2.32954
 Alpha virt. eigenvalues --    2.33700   2.34058   2.35884   2.37205   2.37891
 Alpha virt. eigenvalues --    2.39646   2.43137   2.43184   2.43462   2.44682
 Alpha virt. eigenvalues --    2.45707   2.46996   2.56817   2.57106   2.58129
 Alpha virt. eigenvalues --    2.58708   2.59699   2.59741   2.67181   2.67741
 Alpha virt. eigenvalues --    2.67844   2.71204   2.77036   2.77697   2.80046
 Alpha virt. eigenvalues --    2.82029   2.83546   2.91447   2.91924   2.92020
 Alpha virt. eigenvalues --    2.92764   2.96271   2.98655   2.99969   3.04739
 Alpha virt. eigenvalues --    3.04859   3.07201   3.10844   3.14177   3.18795
 Alpha virt. eigenvalues --    3.23630   3.24984   3.27854   3.43134   3.53003
 Alpha virt. eigenvalues --    3.77063   4.13244   4.29009   4.38141   4.48126
 Alpha virt. eigenvalues --    4.51024   4.53242   4.56012   4.62905   4.71996
 Alpha virt. eigenvalues --    4.72625   4.76705   4.80177   4.88534   4.99947
 Alpha virt. eigenvalues --    5.09216
          Condensed to atoms (all electrons):
               1          2          3          4          5          6
     1  C    5.083957   0.352562  -0.057392   0.395413   0.396093  -0.043758
     2  C    0.352562   5.060040   0.340542  -0.042037  -0.041656   0.399090
     3  C   -0.057392   0.340542   5.097653  -0.002880  -0.002867  -0.039998
     4  H    0.395413  -0.042037  -0.002880   0.571913  -0.031792  -0.002997
     5  H    0.396093  -0.041656  -0.002867  -0.031792   0.565562   0.004564
     6  H   -0.043758   0.399090  -0.039998  -0.002997   0.004564   0.564836
     7  H   -0.043455   0.399463  -0.039747   0.004582  -0.002988  -0.031529
     8  H   -0.003779  -0.038825   0.391288   0.000159   0.002627   0.004222
     9  H   -0.003815  -0.039014   0.390949   0.002649   0.000159  -0.002901
    10  H    0.004395  -0.035778   0.394206  -0.000060  -0.000059  -0.002500
    11  C    0.355870  -0.051842   0.004067  -0.041895  -0.041398  -0.003169
    12  C   -0.052248   0.003982  -0.000086  -0.003307  -0.003243  -0.000066
    13  C    0.004050  -0.000082   0.000001  -0.000054  -0.000052  -0.000000
    14  H   -0.041949  -0.003265  -0.000051  -0.002820   0.004476   0.002405
    15  H   -0.041287  -0.003210  -0.000051   0.004446  -0.002800   0.000233
    16  H   -0.003289  -0.000062  -0.000000   0.002429   0.000235   0.000017
    17  H   -0.003116  -0.000060  -0.000000   0.000231   0.002348  -0.000003
    18  H   -0.000066  -0.000000   0.000000  -0.000001   0.000013   0.000000
    19  H   -0.000067  -0.000001  -0.000000   0.000013  -0.000002  -0.000002
    20  H   -0.000089   0.000001  -0.000000   0.000001   0.000001   0.000000
    21  C   -0.000000   0.000000   0.000000   0.000000  -0.000000  -0.000000
    22  C   -0.000001   0.000000   0.000000   0.000001   0.000000  -0.000000
    23  C   -0.000003   0.000000   0.000000   0.000000   0.000006  -0.000000
    24  C   -0.000001   0.000000  -0.000000  -0.000000   0.000004   0.000000
    25  C    0.000000  -0.000000   0.000000  -0.000000   0.000000   0.000000
    26  C    0.000000   0.000000  -0.000000   0.000000  -0.000000  -0.000000
    27  H    0.000000  -0.000000   0.000000  -0.000000   0.000000   0.000000
    28  H   -0.000000  -0.000000   0.000000   0.000001   0.000000   0.000000
    29  H   -0.000000   0.000000   0.000000  -0.000000  -0.000001  -0.000000
    30  H    0.000000  -0.000000   0.000000   0.000000   0.000000   0.000000
    31  H   -0.000000   0.000000  -0.000000   0.000000  -0.000000  -0.000000
    32  N   -0.000000   0.000000  -0.000000   0.000000  -0.000000  -0.000000
    33  O   -0.000000  -0.000000   0.000000   0.000000   0.000000  -0.000000
    34  O    0.000000   0.000000  -0.000000  -0.000000  -0.000001   0.000000
               7          8          9         10         11         12
     1  C   -0.043455  -0.003779  -0.003815   0.004395   0.355870  -0.052248
     2  C    0.399463  -0.038825  -0.039014  -0.035778  -0.051842   0.003982
     3  C   -0.039747   0.391288   0.390949   0.394206   0.004067  -0.000086
     4  H    0.004582   0.000159   0.002649  -0.000060  -0.041895  -0.003307
     5  H   -0.002988   0.002627   0.000159  -0.000059  -0.041398  -0.003243
     6  H   -0.031529   0.004222  -0.002901  -0.002500  -0.003169  -0.000066
     7  H    0.561455  -0.002890   0.004218  -0.002496  -0.003156  -0.000062
     8  H   -0.002890   0.548477  -0.029293  -0.027413  -0.000070  -0.000001
     9  H    0.004218  -0.029293   0.551306  -0.027585  -0.000071  -0.000000
    10  H   -0.002496  -0.027413  -0.027585   0.536764  -0.000087   0.000001
    11  C   -0.003156  -0.000070  -0.000071  -0.000087   5.077391   0.352538
    12  C   -0.000062  -0.000001  -0.000000   0.000001   0.352538   5.078376
    13  C   -0.000001  -0.000000  -0.000000  -0.000000  -0.056025   0.338641
    14  H    0.000233  -0.000001   0.000013   0.000001   0.395996  -0.042020
    15  H    0.002380   0.000013  -0.000001   0.000001   0.397187  -0.041418
    16  H   -0.000003   0.000000  -0.000002   0.000000  -0.042843   0.396100
    17  H    0.000017  -0.000002   0.000000   0.000000  -0.041535   0.397208
    18  H   -0.000002   0.000000  -0.000000  -0.000000  -0.003616  -0.037511
    19  H    0.000000  -0.000000   0.000000  -0.000000  -0.003878  -0.038992
    20  H    0.000000  -0.000000  -0.000000   0.000000   0.004385  -0.036947
    21  C   -0.000000  -0.000000   0.000000  -0.000000  -0.000000   0.000001
    22  C    0.000000  -0.000000  -0.000000   0.000000   0.000005  -0.000118
    23  C   -0.000000  -0.000000  -0.000000  -0.000000   0.000061  -0.001017
    24  C   -0.000000  -0.000000  -0.000000   0.000000   0.000003  -0.000122
    25  C   -0.000000   0.000000  -0.000000  -0.000000  -0.000000   0.000000
    26  C    0.000000  -0.000000   0.000000   0.000000  -0.000000   0.000001
    27  H   -0.000000  -0.000000   0.000000  -0.000000  -0.000000   0.000000
    28  H    0.000000  -0.000000  -0.000000   0.000000  -0.000001   0.000045
    29  H    0.000000   0.000000   0.000000  -0.000000   0.000043  -0.001004
    30  H    0.000000   0.000000   0.000000  -0.000000  -0.000000   0.000000
    31  H   -0.000000   0.000000  -0.000000   0.000000   0.000000  -0.000000
    32  N    0.000000   0.000000  -0.000000   0.000000   0.000000   0.000009
    33  O    0.000000  -0.000000   0.000000   0.000000  -0.000000   0.000000
    34  O   -0.000000   0.000000   0.000000  -0.000000   0.000001  -0.000763
              13         14         15         16         17         18
     1  C    0.004050  -0.041949  -0.041287  -0.003289  -0.003116  -0.000066
     2  C   -0.000082  -0.003265  -0.003210  -0.000062  -0.000060  -0.000000
     3  C    0.000001  -0.000051  -0.000051  -0.000000  -0.000000   0.000000
     4  H   -0.000054  -0.002820   0.004446   0.002429   0.000231  -0.000001
     5  H   -0.000052   0.004476  -0.002800   0.000235   0.002348   0.000013
     6  H   -0.000000   0.002405   0.000233   0.000017  -0.000003   0.000000
     7  H   -0.000001   0.000233   0.002380  -0.000003   0.000017  -0.000002
     8  H   -0.000000  -0.000001   0.000013   0.000000  -0.000002   0.000000
     9  H   -0.000000   0.000013  -0.000001  -0.000002   0.000000  -0.000000
    10  H   -0.000000   0.000001   0.000001   0.000000   0.000000  -0.000000
    11  C   -0.056025   0.395996   0.397187  -0.042843  -0.041535  -0.003616
    12  C    0.338641  -0.042020  -0.041418   0.396100   0.397208  -0.037511
    13  C    5.098330  -0.002837  -0.002847  -0.041386  -0.039618   0.392996
    14  H   -0.002837   0.568566  -0.031237  -0.003150   0.004460   0.000148
    15  H   -0.002847  -0.031237   0.559821   0.004608  -0.003062   0.002568
    16  H   -0.041386  -0.003150   0.004608   0.580681  -0.033623   0.004219
    17  H   -0.039618   0.004460  -0.003062  -0.033623   0.558042  -0.003001
    18  H    0.392996   0.000148   0.002568   0.004219  -0.003001   0.531943
    19  H    0.389474   0.002576   0.000147  -0.003025   0.004310  -0.029052
    20  H    0.393436  -0.000069  -0.000050  -0.002280  -0.002950  -0.025800
    21  C    0.000000   0.000000  -0.000000   0.000003  -0.000009  -0.000000
    22  C    0.000008  -0.000000  -0.000000   0.000252   0.000127   0.000000
    23  C   -0.000564  -0.000001  -0.000001   0.000268  -0.000016   0.000027
    24  C    0.000007  -0.000000   0.000000   0.000023  -0.000011  -0.000003
    25  C   -0.000000   0.000000   0.000000  -0.000001  -0.000021  -0.000000
    26  C   -0.000000   0.000000   0.000000   0.000000  -0.000007   0.000000
    27  H    0.000000   0.000000  -0.000000  -0.000000   0.000000  -0.000000
    28  H   -0.000003  -0.000000   0.000000   0.000203  -0.000011   0.000000
    29  H    0.000806  -0.000001  -0.000001  -0.000337  -0.001200  -0.000061
    30  H    0.000000   0.000000  -0.000000  -0.000000   0.000000  -0.000000
    31  H   -0.000000  -0.000000   0.000000  -0.000000   0.000000   0.000000
    32  N   -0.000001  -0.000000  -0.000000  -0.000001   0.000058   0.000003
    33  O    0.000000   0.000000  -0.000000  -0.000000  -0.000011  -0.000000
    34  O    0.000378  -0.000000   0.000000   0.000004   0.002209   0.000045
              19         20         21         22         23         24
     1  C   -0.000067  -0.000089  -0.000000  -0.000001  -0.000003  -0.000001
     2  C   -0.000001   0.000001   0.000000   0.000000   0.000000   0.000000
     3  C   -0.000000  -0.000000   0.000000   0.000000   0.000000  -0.000000
     4  H    0.000013   0.000001   0.000000   0.000001   0.000000  -0.000000
     5  H   -0.000002   0.000001  -0.000000   0.000000   0.000006   0.000004
     6  H   -0.000002   0.000000  -0.000000  -0.000000  -0.000000   0.000000
     7  H    0.000000   0.000000  -0.000000   0.000000  -0.000000  -0.000000
     8  H   -0.000000  -0.000000  -0.000000  -0.000000  -0.000000  -0.000000
     9  H    0.000000  -0.000000   0.000000  -0.000000  -0.000000  -0.000000
    10  H   -0.000000   0.000000  -0.000000   0.000000  -0.000000   0.000000
    11  C   -0.003878   0.004385  -0.000000   0.000005   0.000061   0.000003
    12  C   -0.038992  -0.036947   0.000001  -0.000118  -0.001017  -0.000122
    13  C    0.389474   0.393436   0.000000   0.000008  -0.000564   0.000007
    14  H    0.002576  -0.000069   0.000000  -0.000000  -0.000001  -0.000000
    15  H    0.000147  -0.000050  -0.000000  -0.000000  -0.000001   0.000000
    16  H   -0.003025  -0.002280   0.000003   0.000252   0.000268   0.000023
    17  H    0.004310  -0.002950  -0.000009   0.000127  -0.000016  -0.000011
    18  H   -0.029052  -0.025800  -0.000000   0.000000   0.000027  -0.000003
    19  H    0.554639  -0.028597   0.000000  -0.000000   0.000001  -0.000000
    20  H   -0.028597   0.540792  -0.000000  -0.000003  -0.000270   0.000014
    21  C    0.000000  -0.000000   4.876215   0.541820  -0.045066  -0.028974
    22  C   -0.000000  -0.000003   0.541820   4.934929   0.522253  -0.038265
    23  C    0.000001  -0.000270  -0.045066   0.522253   4.924233   0.547112
    24  C   -0.000000   0.000014  -0.028974  -0.038265   0.547112   4.825711
    25  C    0.000000   0.000000  -0.045596  -0.030562  -0.052502   0.547562
    26  C   -0.000000  -0.000000   0.542057  -0.043469  -0.030219  -0.040303
    27  H    0.000000   0.000000   0.381295  -0.027962   0.002203   0.000215
    28  H   -0.000000  -0.000002  -0.027631   0.382448  -0.027116   0.001519
    29  H   -0.000013   0.001737   0.001851  -0.023534   0.366546  -0.019533
    30  H   -0.000000   0.000000   0.001946  -0.000076   0.002588  -0.019798
    31  H    0.000000  -0.000000  -0.027711   0.002337   0.000194   0.001572
    32  N   -0.000000   0.000001   0.000001   0.001549  -0.044411   0.243555
    33  O    0.000000   0.000000  -0.000003  -0.000027   0.003678  -0.088244
    34  O    0.000005   0.000120  -0.000009   0.000834   0.004268  -0.087745
              25         26         27         28         29         30
     1  C    0.000000   0.000000   0.000000  -0.000000  -0.000000   0.000000
     2  C   -0.000000   0.000000  -0.000000  -0.000000   0.000000  -0.000000
     3  C    0.000000  -0.000000   0.000000   0.000000   0.000000   0.000000
     4  H   -0.000000   0.000000  -0.000000   0.000001  -0.000000   0.000000
     5  H    0.000000  -0.000000   0.000000   0.000000  -0.000001   0.000000
     6  H    0.000000  -0.000000   0.000000   0.000000  -0.000000   0.000000
     7  H   -0.000000   0.000000  -0.000000   0.000000   0.000000   0.000000
     8  H    0.000000  -0.000000  -0.000000  -0.000000   0.000000   0.000000
     9  H   -0.000000   0.000000   0.000000  -0.000000   0.000000   0.000000
    10  H   -0.000000   0.000000  -0.000000   0.000000  -0.000000  -0.000000
    11  C   -0.000000  -0.000000  -0.000000  -0.000001   0.000043  -0.000000
    12  C    0.000000   0.000001   0.000000   0.000045  -0.001004   0.000000
    13  C   -0.000000  -0.000000   0.000000  -0.000003   0.000806   0.000000
    14  H    0.000000   0.000000   0.000000  -0.000000  -0.000001   0.000000
    15  H    0.000000   0.000000  -0.000000   0.000000  -0.000001  -0.000000
    16  H   -0.000001   0.000000  -0.000000   0.000203  -0.000337  -0.000000
    17  H   -0.000021  -0.000007   0.000000  -0.000011  -0.001200   0.000000
    18  H   -0.000000   0.000000  -0.000000   0.000000  -0.000061  -0.000000
    19  H    0.000000  -0.000000   0.000000  -0.000000  -0.000013  -0.000000
    20  H    0.000000  -0.000000   0.000000  -0.000002   0.001737   0.000000
    21  C   -0.045596   0.542057   0.381295  -0.027631   0.001851   0.001946
    22  C   -0.030562  -0.043469  -0.027962   0.382448  -0.023534  -0.000076
    23  C   -0.052502  -0.030219   0.002203  -0.027116   0.366546   0.002588
    24  C    0.547562  -0.040303   0.000215   0.001519  -0.019533  -0.019798
    25  C    4.918429   0.523843   0.002174   0.000211   0.002467   0.368553
    26  C    0.523843   4.932240  -0.028065   0.002323  -0.000031  -0.024057
    27  H    0.002174  -0.028065   0.447082  -0.001185  -0.000071  -0.000071
    28  H    0.000211   0.002323  -0.001185   0.446583  -0.000992   0.000007
    29  H    0.002467  -0.000031  -0.000071  -0.000992   0.384606  -0.000074
    30  H    0.368553  -0.024057  -0.000071   0.000007  -0.000074   0.392988
    31  H   -0.027370   0.382611  -0.001199  -0.000093   0.000007  -0.001119
    32  N   -0.044590   0.001520   0.000002  -0.000050  -0.005111  -0.005409
    33  O    0.003938   0.000766   0.000000   0.000000   0.000023   0.009107
    34  O    0.003648  -0.000022  -0.000000   0.000001   0.006574   0.000046
              31         32         33         34
     1  C   -0.000000  -0.000000  -0.000000   0.000000
     2  C    0.000000   0.000000  -0.000000   0.000000
     3  C   -0.000000  -0.000000   0.000000  -0.000000
     4  H    0.000000   0.000000   0.000000  -0.000000
     5  H   -0.000000  -0.000000   0.000000  -0.000001
     6  H   -0.000000  -0.000000  -0.000000   0.000000
     7  H   -0.000000   0.000000   0.000000  -0.000000
     8  H    0.000000   0.000000  -0.000000   0.000000
     9  H   -0.000000  -0.000000   0.000000   0.000000
    10  H    0.000000   0.000000   0.000000  -0.000000
    11  C    0.000000   0.000000  -0.000000   0.000001
    12  C   -0.000000   0.000009   0.000000  -0.000763
    13  C   -0.000000  -0.000001   0.000000   0.000378
    14  H   -0.000000  -0.000000   0.000000  -0.000000
    15  H    0.000000  -0.000000  -0.000000   0.000000
    16  H   -0.000000  -0.000001  -0.000000   0.000004
    17  H    0.000000   0.000058  -0.000011   0.002209
    18  H    0.000000   0.000003  -0.000000   0.000045
    19  H    0.000000  -0.000000   0.000000   0.000005
    20  H   -0.000000   0.000001   0.000000   0.000120
    21  C   -0.027711   0.000001  -0.000003  -0.000009
    22  C    0.002337   0.001549  -0.000027   0.000834
    23  C    0.000194  -0.044411   0.003678   0.004268
    24  C    0.001572   0.243555  -0.088244  -0.087745
    25  C   -0.027370  -0.044590   0.003938   0.003648
    26  C    0.382611   0.001520   0.000766  -0.000022
    27  H   -0.001199   0.000002   0.000000  -0.000000
    28  H   -0.000093  -0.000050   0.000000   0.000001
    29  H    0.000007  -0.005111   0.000023   0.006574
    30  H   -0.001119  -0.005409   0.009107   0.000046
    31  H    0.447535  -0.000049  -0.000001   0.000000
    32  N   -0.000049   5.737767   0.314930   0.312545
    33  O   -0.000001   0.314930   8.302842  -0.087210
    34  O    0.000000   0.312545  -0.087210   8.306761
 Mulliken charges:
               1
     1  C   -0.298026
     2  C   -0.299849
     3  C   -0.475634
     4  H    0.146002
     5  H    0.150768
     6  H    0.151555
     7  H    0.153980
     8  H    0.155487
     9  H    0.153387
    10  H    0.160610
    11  C   -0.297961
    12  C   -0.307979
    13  C   -0.474655
    14  H    0.148525
    15  H    0.154560
    16  H    0.140959
    17  H    0.159246
    18  H    0.167151
    19  H    0.152464
    20  H    0.156570
    21  C   -0.170188
    22  C   -0.222547
    23  C   -0.172251
    24  C    0.155701
    25  C   -0.170182
    26  C   -0.219187
    27  H    0.225582
    28  H    0.223742
    29  H    0.287307
    30  H    0.275370
    31  H    0.223286
    32  N    0.487682
    33  O   -0.459789
    34  O   -0.461689
 Sum of Mulliken charges =  -0.00000
 Mulliken charges with hydrogens summed into heavy atoms:
               1
     1  C   -0.001255
     2  C    0.005686
     3  C   -0.006149
    11  C    0.005125
    12  C   -0.007773
    13  C    0.001531
    21  C    0.055394
    22  C    0.001195
    23  C    0.115055
    24  C    0.155701
    25  C    0.105188
    26  C    0.004098
    32  N    0.487682
    33  O   -0.459789
    34  O   -0.461689
 Electronic spatial extent (au):  <R**2>=           5435.3104
 Charge=             -0.0000 electrons
 Dipole moment (field-independent basis, Debye):
    X=              0.0600    Y=              4.1507    Z=              2.9034  Tot=              5.0657
 Quadrupole moment (field-independent basis, Debye-Ang):
   XX=            -93.7683   YY=            -94.5100   ZZ=            -93.7135
   XY=             12.5456   XZ=              5.1199   YZ=             -2.1663
 Traceless Quadrupole moment (field-independent basis, Debye-Ang):
   XX=              0.2289   YY=             -0.5127   ZZ=              0.2838
   XY=             12.5456   XZ=              5.1199   YZ=             -2.1663
 Octapole moment (field-independent basis, Debye-Ang**2):
  XXX=             19.4333  YYY=             20.7798  ZZZ=              8.3612  XYY=             19.4940
  XXY=             25.5640  XXZ=              4.9920  XZZ=             -4.5975  YZZ=             11.0721
  YYZ=              9.6963  XYZ=            -12.4839
 Hexadecapole moment (field-independent basis, Debye-Ang**3):
 XXXX=          -5099.1781 YYYY=          -1506.1127 ZZZZ=           -842.9522 XXXY=             65.3785
 XXXZ=            -45.9870 YYYX=             80.6657 YYYZ=             38.9003 ZZZX=              6.1587
 ZZZY=             15.5284 XXYY=          -1067.2688 XXZZ=          -1018.4825 YYZZ=           -385.5075
 XXYZ=            -31.4078 YYXZ=             13.1399 ZZXY=             33.8332
 N-N= 9.388159375176D+02 E-N=-3.440759885014D+03  KE= 6.679673377486D+02
 Leave Link  601 at Wed May  5 17:09:28 2021, MaxMem=   524288000 cpu:               0.7 elap:               0.7
 (Enter /opt/gaussian/g16_legacy/l9999.exe)
 1\1\GINC-TRUENO90\SP\RMP2-FC\6-31G(d)\C12H19N1O2\JRAMOS\05-May-2021\0\
 \#p 6-31g* mp2\\Input file generated by CHIRIPA (05-May-2021 14:53:15)
 \\0,1\C,0,-0.666,-0.374,0.\C,0,-1.882,0.553,0.\C,0,-3.207,-0.21,0.\H,0
 ,-0.713,-1.03,-0.88\H,0,-0.713,-1.029,0.881\H,0,-1.832,1.207,-0.88\H,0
 ,-1.832,1.207,0.88\H,0,-3.283,-0.85,0.885\H,0,-3.283,-0.85,-0.885\H,0,
 -4.063,0.472,0.\C,0,0.666,0.374,0.\C,0,1.882,-0.553,0.\C,0,3.207,0.21,
 0.\H,0,0.713,1.029,-0.881\H,0,0.713,1.03,0.88\H,0,1.832,-1.207,-0.88\H
 ,0,1.832,-1.207,0.88\H,0,3.283,0.85,0.885\H,0,3.283,0.85,-0.885\H,0,4.
 063,-0.472,0.\C,0,2.136319,-5.913545,0.435411\C,0,2.726209,-4.704767,0
 .051476\C,0,3.167484,-3.79258,1.014668\C,0,3.002443,-4.122917,2.358889
 \C,0,2.418583,-5.319123,2.773\C,0,1.984656,-6.216332,1.792555\H,0,1.79
 638,-6.616336,-0.319521\H,0,2.845281,-4.466968,-1.001766\H,0,3.627564,
 -2.849611,0.74531\H,0,2.313466,-5.528238,3.830657\H,0,1.526897,-7.1543
 33,2.093645\N,0,3.465711,-3.165154,3.38771\O,0,3.308845,-3.479765,4.56
 5441\O,0,3.976916,-2.117984,2.996888\\Version=EM64L-G16RevA.03\State=1
 -A\HF=-669.5348138\MP2=-671.6281882\RMSD=6.618e-09\PG=C01 [X(C12H19N1O
 2)]\\@


 THE MOLECULE ALSO HAS A BODY.  WHEN THIS BODY IS HIT, THE MOLECULE
 FEELS HURT ALL OVER -- A. KITAIGORODSKI
 Job cpu time:       0 days  0 hours  5 minutes 15.4 seconds.
 Elapsed time:       0 days  0 hours  2 minutes 41.5 seconds.
 File lengths (MBytes):  RWF=     43 Int=      0 D2E=      0 Chk=      6 Scr=      1
 Normal termination of Gaussian 16 at Wed May  5 17:09:28 2021.
