 Entering Gaussian System, Link 0=/opt/gaussian/g16_legacy/g16
 Input=gaussian_01273_1_1.com
 Output=gaussian_01273_1_1.log
 Initial command:
 /opt/gaussian/g16_legacy/l1.exe "/scratch-local/jramos/2582703/Gau-4248.inp" -scrdir="/scratch-local/jramos/2582703/"
 Entering Link 1 = /opt/gaussian/g16_legacy/l1.exe PID=      4249.
  
 Copyright (c) 1988,1990,1992,1993,1995,1998,2003,2009,2016,
            Gaussian, Inc.  All Rights Reserved.
  
 This is part of the Gaussian(R) 16 program.  It is based on
 the Gaussian(R) 09 system (copyright 2009, Gaussian, Inc.),
 the Gaussian(R) 03 system (copyright 2003, Gaussian, Inc.),
 the Gaussian(R) 98 system (copyright 1998, Gaussian, Inc.),
 the Gaussian(R) 94 system (copyright 1995, Gaussian, Inc.),
 the Gaussian 92(TM) system (copyright 1992, Gaussian, Inc.),
 the Gaussian 90(TM) system (copyright 1990, Gaussian, Inc.),
 the Gaussian 88(TM) system (copyright 1988, Gaussian, Inc.),
 the Gaussian 86(TM) system (copyright 1986, Carnegie Mellon
 University), and the Gaussian 82(TM) system (copyright 1983,
 Carnegie Mellon University). Gaussian is a federally registered
 trademark of Gaussian, Inc.
  
 This software contains proprietary and confidential information,
 including trade secrets, belonging to Gaussian, Inc.
  
 This software is provided under written license and may be
 used, copied, transmitted, or stored only in accord with that
 written license.
  
 The following legend is applicable only to US Government
 contracts under FAR:
  
                    RESTRICTED RIGHTS LEGEND
  
 Use, reproduction and disclosure by the US Government is
 subject to restrictions as set forth in subparagraphs (a)
 and (c) of the Commercial Computer Software - Restricted
 Rights clause in FAR 52.227-19.
  
 Gaussian, Inc.
 340 Quinnipiac St., Bldg. 40, Wallingford CT 06492
  
  
 ---------------------------------------------------------------
 Warning -- This program may not be used in any manner that
 competes with the business of Gaussian, Inc. or will provide
 assistance to any competitor of Gaussian, Inc.  The licensee
 of this program is prohibited from giving any competitor of
 Gaussian, Inc. access to this program.  By using this program,
 the user acknowledges that Gaussian, Inc. is engaged in the
 business of creating and licensing software in the field of
 computational chemistry and represents and warrants to the
 licensee that it is not a competitor of Gaussian, Inc. and that
 it will not use this program in any manner prohibited above.
 ---------------------------------------------------------------
  

 Cite this work as:
 Gaussian 16, Revision A.03,
 M. J. Frisch, G. W. Trucks, H. B. Schlegel, G. E. Scuseria, 
 M. A. Robb, J. R. Cheeseman, G. Scalmani, V. Barone, 
 G. A. Petersson, H. Nakatsuji, X. Li, M. Caricato, A. V. Marenich, 
 J. Bloino, B. G. Janesko, R. Gomperts, B. Mennucci, H. P. Hratchian, 
 J. V. Ortiz, A. F. Izmaylov, J. L. Sonnenberg, D. Williams-Young, 
 F. Ding, F. Lipparini, F. Egidi, J. Goings, B. Peng, A. Petrone, 
 T. Henderson, D. Ranasinghe, V. G. Zakrzewski, J. Gao, N. Rega, 
 G. Zheng, W. Liang, M. Hada, M. Ehara, K. Toyota, R. Fukuda, 
 J. Hasegawa, M. Ishida, T. Nakajima, Y. Honda, O. Kitao, H. Nakai, 
 T. Vreven, K. Throssell, J. A. Montgomery, Jr., J. E. Peralta, 
 F. Ogliaro, M. J. Bearpark, J. J. Heyd, E. N. Brothers, K. N. Kudin, 
 V. N. Staroverov, T. A. Keith, R. Kobayashi, J. Normand, 
 K. Raghavachari, A. P. Rendell, J. C. Burant, S. S. Iyengar, 
 J. Tomasi, M. Cossi, J. M. Millam, M. Klene, C. Adamo, R. Cammi, 
 J. W. Ochterski, R. L. Martin, K. Morokuma, O. Farkas, 
 J. B. Foresman, and D. J. Fox, Gaussian, Inc., Wallingford CT, 2016.
 
 ******************************************
 Gaussian 16:  EM64L-G16RevA.03 25-Dec-2016
                 5-May-2021 
 ******************************************
 %chk=gaussian_01273_1_1.chk
 %nproc=2
 Will use up to    2 processors via shared memory.
 %mem=4000Mb
 -------------
 #p 6-31g* mp2
 -------------
 1/38=1,172=1/1;
 2/12=2,17=6,18=5,40=1/2;
 3/5=1,6=6,7=1,11=9,25=1,30=1/1,2,3;
 4//1;
 5/5=2,38=5/2;
 8/10=2/1;
 9/16=-3/6;
 6/7=2,8=2,9=2,10=2/1;
 99/5=1,9=1/99;
 Leave Link    1 at Wed May  5 15:06:36 2021, MaxMem=   524288000 cpu:               0.1 elap:               0.1
 (Enter /opt/gaussian/g16_legacy/l101.exe)
 ------------------------------------------------------
 Input file generated by CHIRIPA (05-May-2021 14:51:09)
 ------------------------------------------------------
 Symbolic Z-matrix:
 Charge =  0 Multiplicity = 1
 C                    -0.666    -0.374     0. 
 C                    -1.882     0.553     0. 
 C                    -3.207    -0.21      0. 
 H                    -0.713    -1.03     -0.88 
 H                    -0.713    -1.029     0.881 
 H                    -1.832     1.207    -0.88 
 H                    -1.832     1.207     0.88 
 H                    -3.283    -0.85      0.885 
 H                    -3.283    -0.85     -0.885 
 H                    -4.063     0.472     0. 
 C                     0.666     0.374     0. 
 C                     1.882    -0.553     0. 
 C                     3.207     0.21      0. 
 H                     0.713     1.029    -0.881 
 H                     0.713     1.03      0.88 
 H                     1.832    -1.207    -0.88 
 H                     1.832    -1.207     0.88 
 H                     3.283     0.85      0.885 
 H                     3.283     0.85     -0.885 
 H                     4.063    -0.472     0. 
 C                    -1.02092  -2.16121   4.69887 
 C                    -0.95157  -3.43161   3.85078 
 C                    -0.94068  -4.70623   4.69519 
 H                    -0.16443  -2.13985   5.38656 
 H                    -1.92347  -2.19528   5.32468 
 H                    -0.05014  -3.39451   3.22575 
 H                    -1.80822  -3.44985   3.1649 
 H                    -1.84584  -4.77029   5.30772 
 H                    -0.07777  -4.71463   5.36892 
 H                    -0.89079  -5.60234   4.06882 
 C                    -1.03256  -0.87868   3.86899 
 C                    -1.1019    0.39173   4.71707 
 C                    -1.1128    1.66634   3.87267 
 H                    -0.13001  -0.8446    3.24318 
 H                    -1.88905  -0.90003   3.18129 
 H                    -0.24526   0.40996   5.40296 
 H                    -2.00333   0.35462   5.34211 
 H                    -1.97571   1.67475   3.19894 
 H                    -0.20764   1.7304    3.26013 
 H                    -1.16268   2.56246   4.49904 
 
 ITRead=  0  0  0  0  0  0  0  0  0  0  0  0  0  0  0  0  0  0  0  0
 ITRead=  0  0  0  0  0  0  0  0  0  0  0  0  0  0  0  0  0  0  0  0
 MicOpt= -1 -1 -1 -1 -1 -1 -1 -1 -1 -1 -1 -1 -1 -1 -1 -1 -1 -1 -1 -1
 MicOpt= -1 -1 -1 -1 -1 -1 -1 -1 -1 -1 -1 -1 -1 -1 -1 -1 -1 -1 -1 -1
 NAtoms=     40 NQM=       40 NQMF=       0 NMMI=      0 NMMIF=      0
                NMic=       0 NMicF=      0.
                    Isotopes and Nuclear Properties:
 (Nuclear quadrupole moments (NQMom) in fm**2, nuclear magnetic moments (NMagM)
  in nuclear magnetons)

  Atom         1           2           3           4           5           6           7           8           9          10
 IAtWgt=          12          12          12           1           1           1           1           1           1           1
 AtmWgt=  12.0000000  12.0000000  12.0000000   1.0078250   1.0078250   1.0078250   1.0078250   1.0078250   1.0078250   1.0078250
 NucSpn=           0           0           0           1           1           1           1           1           1           1
 AtZEff=  -0.0000000  -0.0000000  -0.0000000  -0.0000000  -0.0000000  -0.0000000  -0.0000000  -0.0000000  -0.0000000  -0.0000000
 NQMom=    0.0000000   0.0000000   0.0000000   0.0000000   0.0000000   0.0000000   0.0000000   0.0000000   0.0000000   0.0000000
 NMagM=    0.0000000   0.0000000   0.0000000   2.7928460   2.7928460   2.7928460   2.7928460   2.7928460   2.7928460   2.7928460
 AtZNuc=   6.0000000   6.0000000   6.0000000   1.0000000   1.0000000   1.0000000   1.0000000   1.0000000   1.0000000   1.0000000

  Atom        11          12          13          14          15          16          17          18          19          20
 IAtWgt=          12          12          12           1           1           1           1           1           1           1
 AtmWgt=  12.0000000  12.0000000  12.0000000   1.0078250   1.0078250   1.0078250   1.0078250   1.0078250   1.0078250   1.0078250
 NucSpn=           0           0           0           1           1           1           1           1           1           1
 AtZEff=  -0.0000000  -0.0000000  -0.0000000  -0.0000000  -0.0000000  -0.0000000  -0.0000000  -0.0000000  -0.0000000  -0.0000000
 NQMom=    0.0000000   0.0000000   0.0000000   0.0000000   0.0000000   0.0000000   0.0000000   0.0000000   0.0000000   0.0000000
 NMagM=    0.0000000   0.0000000   0.0000000   2.7928460   2.7928460   2.7928460   2.7928460   2.7928460   2.7928460   2.7928460
 AtZNuc=   6.0000000   6.0000000   6.0000000   1.0000000   1.0000000   1.0000000   1.0000000   1.0000000   1.0000000   1.0000000

  Atom        21          22          23          24          25          26          27          28          29          30
 IAtWgt=          12          12          12           1           1           1           1           1           1           1
 AtmWgt=  12.0000000  12.0000000  12.0000000   1.0078250   1.0078250   1.0078250   1.0078250   1.0078250   1.0078250   1.0078250
 NucSpn=           0           0           0           1           1           1           1           1           1           1
 AtZEff=  -0.0000000  -0.0000000  -0.0000000  -0.0000000  -0.0000000  -0.0000000  -0.0000000  -0.0000000  -0.0000000  -0.0000000
 NQMom=    0.0000000   0.0000000   0.0000000   0.0000000   0.0000000   0.0000000   0.0000000   0.0000000   0.0000000   0.0000000
 NMagM=    0.0000000   0.0000000   0.0000000   2.7928460   2.7928460   2.7928460   2.7928460   2.7928460   2.7928460   2.7928460
 AtZNuc=   6.0000000   6.0000000   6.0000000   1.0000000   1.0000000   1.0000000   1.0000000   1.0000000   1.0000000   1.0000000

  Atom        31          32          33          34          35          36          37          38          39          40
 IAtWgt=          12          12          12           1           1           1           1           1           1           1
 AtmWgt=  12.0000000  12.0000000  12.0000000   1.0078250   1.0078250   1.0078250   1.0078250   1.0078250   1.0078250   1.0078250
 NucSpn=           0           0           0           1           1           1           1           1           1           1
 AtZEff=  -0.0000000  -0.0000000  -0.0000000  -0.0000000  -0.0000000  -0.0000000  -0.0000000  -0.0000000  -0.0000000  -0.0000000
 NQMom=    0.0000000   0.0000000   0.0000000   0.0000000   0.0000000   0.0000000   0.0000000   0.0000000   0.0000000   0.0000000
 NMagM=    0.0000000   0.0000000   0.0000000   2.7928460   2.7928460   2.7928460   2.7928460   2.7928460   2.7928460   2.7928460
 AtZNuc=   6.0000000   6.0000000   6.0000000   1.0000000   1.0000000   1.0000000   1.0000000   1.0000000   1.0000000   1.0000000
 Leave Link  101 at Wed May  5 15:06:37 2021, MaxMem=   524288000 cpu:               0.3 elap:               0.2
 (Enter /opt/gaussian/g16_legacy/l202.exe)
                          Input orientation:                          
 ---------------------------------------------------------------------
 Center     Atomic      Atomic             Coordinates (Angstroms)
 Number     Number       Type             X           Y           Z
 ---------------------------------------------------------------------
      1          6           0       -0.666000   -0.374000    0.000000
      2          6           0       -1.882000    0.553000    0.000000
      3          6           0       -3.207000   -0.210000    0.000000
      4          1           0       -0.713000   -1.030000   -0.880000
      5          1           0       -0.713000   -1.029000    0.881000
      6          1           0       -1.832000    1.207000   -0.880000
      7          1           0       -1.832000    1.207000    0.880000
      8          1           0       -3.283000   -0.850000    0.885000
      9          1           0       -3.283000   -0.850000   -0.885000
     10          1           0       -4.063000    0.472000    0.000000
     11          6           0        0.666000    0.374000    0.000000
     12          6           0        1.882000   -0.553000    0.000000
     13          6           0        3.207000    0.210000    0.000000
     14          1           0        0.713000    1.029000   -0.881000
     15          1           0        0.713000    1.030000    0.880000
     16          1           0        1.832000   -1.207000   -0.880000
     17          1           0        1.832000   -1.207000    0.880000
     18          1           0        3.283000    0.850000    0.885000
     19          1           0        3.283000    0.850000   -0.885000
     20          1           0        4.063000   -0.472000    0.000000
     21          6           0       -1.020917   -2.161206    4.698873
     22          6           0       -0.951573   -3.431608    3.850784
     23          6           0       -0.940681   -4.706226    4.695193
     24          1           0       -0.164430   -2.139852    5.386564
     25          1           0       -1.923470   -2.195283    5.324678
     26          1           0       -0.050144   -3.394508    3.225753
     27          1           0       -1.808221   -3.449846    3.164899
     28          1           0       -1.845835   -4.770286    5.307723
     29          1           0       -0.077769   -4.714634    5.368923
     30          1           0       -0.890793   -5.602343    4.068818
     31          6           0       -1.032561   -0.878678    3.868985
     32          6           0       -1.101904    0.391725    4.717074
     33          6           0       -1.112796    1.666342    3.872665
     34          1           0       -0.130008   -0.844601    3.243180
     35          1           0       -1.889047   -0.900032    3.181293
     36          1           0       -0.245257    0.409962    5.402959
     37          1           0       -2.003334    0.354624    5.342105
     38          1           0       -1.975709    1.674750    3.198935
     39          1           0       -0.207643    1.730403    3.260134
     40          1           0       -1.162684    2.562459    4.499040
 ---------------------------------------------------------------------
                    Distance matrix (angstroms):
                    1          2          3          4          5
     1  C    0.000000
     2  C    1.529047   0.000000
     3  C    2.546287   1.528985   0.000000
     4  H    1.098610   2.155655   2.768905   0.000000
     5  H    1.098815   2.155330   2.768927   1.761000   0.000000
     6  H    2.152561   1.097550   2.161692   2.501266   3.058264
     7  H    2.152561   1.097550   2.161692   3.058420   2.500372
     8  H    2.803300   2.171275   1.094806   3.122903   2.576229
     9  H    2.803300   2.171275   1.094806   2.576301   3.123411
    10  H    3.500761   2.182504   1.094468   3.775302   3.775137
    11  C    1.527654   2.554280   3.916782   2.155750   2.155507
    12  C    2.554280   3.923128   5.100546   2.781358   2.781504
    13  C    3.916782   5.100546   6.427736   4.204569   4.204484
    14  H    2.155507   2.781504   4.204484   2.504587   3.061615
    15  H    2.155750   2.781358   4.204569   3.061809   2.504587
    16  H    2.776381   4.203070   5.211519   2.551148   3.099973
    17  H    2.776381   4.203070   5.211519   3.099347   2.551217
    18  H    4.228002   5.248682   6.635279   4.755801   4.415730
    19  H    4.228002   5.248682   6.635279   4.416157   4.755777
    20  H    4.730015   6.032715   7.274720   4.888347   4.888413
    21  C    5.039790   5.494341   5.537650   5.700725   3.994103
    22  C    4.925348   5.618837   5.504021   5.310834   3.827409
    23  C    6.394409   7.112691   6.884554   6.682010   5.303008
    24  H    5.690771   6.262313   6.480481   6.387685   4.672797
    25  H    5.766325   5.992243   5.825890   6.428153   4.750971
    26  H    4.461864   5.417010   5.523795   4.784087   3.396008
    27  H    4.558737   5.103411   4.740229   4.839047   3.503741
    28  H    6.992229   7.517354   7.128878   7.318536   5.905626
    29  H    6.929102   7.734892   7.675230   7.282107   5.841992
    30  H    6.628830   7.444865   7.141250   6.740084   5.577568
    31  C    3.918943   4.211923   4.488247   4.762129   3.008782
    32  C    4.798660   4.783863   5.200412   5.787900   4.109157
    33  C    4.400018   4.102285   4.785800   5.478861   4.046574
    34  H    3.320688   3.942205   4.515398   4.168317   2.440036
    35  H    3.448649   3.497424   3.511947   4.230139   2.586710
    36  H    5.475727   5.647243   6.192596   6.462805   4.768386
    37  H    5.554947   5.347164   5.505061   6.503594   4.845703
    38  H    4.018196   3.391208   3.911719   5.054485   3.778561
    39  H    3.907311   3.849444   4.836298   5.001592   3.678311
    40  H    5.395447   4.979629   5.666314   6.483984   5.117715
                    6          7          8          9         10
     6  H    0.000000
     7  H    1.760000   0.000000
     8  H    3.074390   2.517275   0.000000
     9  H    2.517275   3.074390   1.770000   0.000000
    10  H    2.508383   2.508383   1.771810   1.771810   0.000000
    11  C    2.776381   2.776381   4.228002   4.228002   4.730015
    12  C    4.203070   4.203070   5.248682   5.248682   6.032715
    13  C    5.211519   5.211519   6.635279   6.635279   7.274720
    14  H    2.551217   3.099973   4.755777   4.415730   4.888413
    15  H    3.099347   2.551148   4.416157   4.755801   4.888347
    16  H    4.387743   4.727567   5.422721   5.127446   6.192291
    17  H    4.727567   4.387743   5.127446   5.422721   6.192291
    18  H    5.422721   5.127446   6.782504   7.009654   7.408767
    19  H    5.127446   5.422721   7.009654   6.782504   7.408767
    20  H    6.192291   6.192291   7.408767   7.408767   8.180649
    21  C    6.567076   5.156206   4.624058   6.165705   6.186069
    22  C    6.683723   5.578297   4.571228   5.876045   6.304575
    23  C    8.175785   7.093405   5.905464   7.176036   7.655569
    24  H    7.297399   5.855880   5.626124   7.121918   7.143927
    25  H    7.076858   5.598130   4.834134   6.497554   6.328047
    26  H    6.419197   5.463647   4.733392   5.815855   6.438818
    27  H    6.168305   5.187248   3.759270   5.033473   5.521004
    28  H    8.603258   7.438607   6.082316   7.468862   7.782629
    29  H    8.785904   7.635018   6.731602   8.020003   8.462185
    30  H    8.470173   7.577703   6.200332   7.269644   7.969681
    31  C    5.248049   3.731379   3.737575   5.259817   5.096757
    32  C    5.703065   3.990094   4.580813   6.138591   5.570038
    33  C    4.828672   3.111960   4.468546   5.803201   5.012753
    34  H    4.909833   3.562368   3.937309   5.194541   5.264986
    35  H    4.575690   3.120703   2.686740   4.298877   4.090131
    36  H    6.529058   4.859031   5.588143   7.096042   6.615964
    37  H    6.282554   4.546018   4.791080   6.470356   5.726612
    38  H    4.108181   2.370000   3.665742   4.976133   4.004569
    39  H    4.478079   2.928741   4.664500   5.770480   5.203444
    40  H    5.587426   3.922079   5.403878   6.717775   5.746583
                   11         12         13         14         15
    11  C    0.000000
    12  C    1.529047   0.000000
    13  C    2.546287   1.528985   0.000000
    14  H    1.098815   2.155330   2.768927   0.000000
    15  H    1.098610   2.155655   2.768905   1.761000   0.000000
    16  H    2.152561   1.097550   2.161692   2.500372   3.058420
    17  H    2.152561   1.097550   2.161692   3.058264   2.501266
    18  H    2.803300   2.171275   1.094806   3.123411   2.576301
    19  H    2.803300   2.171275   1.094806   2.576229   3.122903
    20  H    3.500761   2.182504   1.094468   3.775137   3.775302
    21  C    5.599318   5.752622   6.751097   6.657242   5.270110
    22  C    5.650463   5.580686   6.736733   6.712496   5.612692
    23  C    7.101757   6.874711   7.963503   8.168317   7.084818
    24  H    6.002011   5.976709   6.775206   7.077702   5.579154
    25  H    6.454360   6.747658   7.775558   7.473782   6.091682
    26  H    5.011985   4.713049   5.831548   6.084014   5.065690
    27  H    5.546184   5.659155   6.968752   6.541094   5.625508
    28  H    7.806723   7.736548   8.860379   8.858874   7.732767
    29  H    7.434563   7.070023   7.991687   8.525033   7.333251
    30  H    7.395645   7.052625   8.193322   8.428971   7.531845
    31  C    4.407194   4.854871   5.841930   5.408195   3.952729
    32  C    5.037518   5.661005   6.391437   5.919327   4.292366
    33  C    4.453291   5.375111   5.981564   5.131965   3.562935
    34  H    3.554832   3.827718   4.771375   4.607592   3.131998
    35  H    4.274582   4.945892   6.109214   5.195579   3.973867
    36  H    5.479384   5.885957   6.414829   6.386674   4.664747
    37  H    5.971918   6.667660   7.463684   6.823510   5.267351
    38  H    4.347846   5.484339   6.264116   4.928693   3.608645
    39  H    3.637520   4.495443   4.959827   4.299830   2.646353
    40  H    5.326800   6.262391   6.698475   5.900383   4.354776
                   16         17         18         19         20
    16  H    0.000000
    17  H    1.760000   0.000000
    18  H    3.074390   2.517275   0.000000
    19  H    2.517275   3.074390   1.770000   0.000000
    20  H    2.508383   2.508383   1.771810   1.771810   0.000000
    21  C    6.338254   4.861423   6.491278   7.666205   7.125941
    22  C    5.922624   4.639258   6.712649   7.661033   6.980957
    23  C    7.142487   5.872652   7.951648   8.935865   8.062898
    24  H    6.642723   5.016479   6.409997   7.756062   7.047550
    25  H    7.319719   5.902154   7.489447   8.656857   8.195104
    26  H    5.018452   3.718900   5.882586   6.784098   5.988697
    27  H    5.885811   4.847920   7.043234   7.798134   7.304477
    28  H    8.031898   6.769653   8.800741   9.810320   9.031142
    29  H    7.416182   6.008423   7.897182   9.020614   7.998203
    30  H    7.157055   6.074636   8.318051   9.142953   8.210710
    31  C    5.555750   4.153015   5.524180   6.649268   6.410864
    32  C    6.518508   5.087912   5.841420   7.128859   7.047910
    33  C    6.286155   5.087628   5.377321   6.528768   6.808737
    34  H    4.580548   3.092803   4.481217   5.618022   5.313978
    35  H    5.516749   4.385929   5.923314   6.807894   6.762448
    36  H    6.812132   5.233232   5.749277   7.223618   6.966412
    37  H    7.474159   6.087597   6.932280   8.183371   8.125380
    38  H    6.280194   5.308539   5.804182   6.709155   7.162941
    39  H    5.470758   4.295756   4.312883   5.490158   5.806672
    40  H    7.218797   6.022824   5.979792   7.189194   7.533729
                   21         22         23         24         25
    21  C    0.000000
    22  C    1.529047   0.000000
    23  C    2.546287   1.528985   0.000000
    24  H    1.098610   2.155655   2.768905   0.000000
    25  H    1.098815   2.155330   2.768928   1.761001   0.000000
    26  H    2.152560   1.097549   2.161692   2.501265   3.058264
    27  H    2.152561   1.097550   2.161693   3.058419   2.500371
    28  H    2.803299   2.171275   1.094806   3.122903   2.576229
    29  H    2.803300   2.171275   1.094806   2.576300   3.123411
    30  H    3.500761   2.182504   1.094468   3.775302   3.775138
    31  C    1.527654   2.554279   3.916783   2.155750   2.155507
    32  C    2.554280   3.923128   5.100547   2.781359   2.781504
    33  C    3.916782   5.100546   6.427737   4.204569   4.204484
    34  H    2.155507   2.781503   4.204483   2.504587   3.061614
    35  H    2.155750   2.781358   4.204569   3.061810   2.504588
    36  H    2.776381   4.203069   5.211519   2.551147   3.099972
    37  H    2.776381   4.203069   5.211519   3.099348   2.551217
    38  H    4.228002   5.248681   6.635279   4.755801   4.415730
    39  H    4.228002   5.248681   6.635279   4.416157   4.755777
    40  H    4.730015   6.032714   7.274719   4.888347   4.888413
                   26         27         28         29         30
    26  H    0.000000
    27  H    1.760000   0.000000
    28  H    3.074389   2.517275   0.000000
    29  H    2.517275   3.074390   1.770000   0.000000
    30  H    2.508383   2.508383   1.771810   1.771809   0.000000
    31  C    2.776381   2.776381   4.228001   4.228002   4.730015
    32  C    4.203070   4.203070   5.248681   5.248682   6.032715
    33  C    5.211519   5.211519   6.635278   6.635279   7.274719
    34  H    2.551217   3.099972   4.755776   4.415730   4.888413
    35  H    3.099347   2.551147   4.416156   4.755801   4.888347
    36  H    4.387743   4.727567   5.422720   5.127445   6.192290
    37  H    4.727567   4.387743   5.127445   5.422720   6.192291
    38  H    5.422720   5.127445   6.782503   7.009654   7.408767
    39  H    5.127446   5.422721   7.009654   6.782504   7.408767
    40  H    6.192290   6.192291   7.408766   7.408766   8.180648
                   31         32         33         34         35
    31  C    0.000000
    32  C    1.529048   0.000000
    33  C    2.546287   1.528985   0.000000
    34  H    1.098815   2.155330   2.768927   0.000000
    35  H    1.098610   2.155656   2.768905   1.761000   0.000000
    36  H    2.152561   1.097549   2.161692   2.500371   3.058419
    37  H    2.152560   1.097550   2.161693   3.058264   2.501266
    38  H    2.803300   2.171275   1.094807   3.123411   2.576300
    39  H    2.803300   2.171275   1.094806   2.576230   3.122903
    40  H    3.500761   2.182503   1.094468   3.775137   3.775302
                   36         37         38         39         40
    36  H    0.000000
    37  H    1.760000   0.000000
    38  H    3.074390   2.517275   0.000000
    39  H    2.517276   3.074391   1.770000   0.000000
    40  H    2.508383   2.508383   1.771810   1.771809   0.000000
 Stoichiometry    C12H28
 Framework group  C1[X(C12H28)]
 Deg. of freedom   114
 Full point group                 C1      NOp   1
 Largest Abelian subgroup         C1      NOp   1
 Largest concise Abelian subgroup C1      NOp   1
                         Standard orientation:                         
 ---------------------------------------------------------------------
 Center     Atomic      Atomic             Coordinates (Angstroms)
 Number     Number       Type             X           Y           Z
 ---------------------------------------------------------------------
      1          6           0       -1.876732   -0.281153   -1.076620
      2          6           0       -1.974822   -1.805691   -1.012230
      3          6           0       -1.184417   -2.496402   -2.123973
      4          1           0       -2.240337    0.062324   -2.054761
      5          1           0       -0.820198    0.014276   -1.014560
      6          1           0       -3.030959   -2.098091   -1.073001
      7          1           0       -1.611121   -2.145564   -0.034057
      8          1           0       -0.123398   -2.233548   -2.062754
      9          1           0       -1.551303   -2.185805   -3.107601
     10          1           0       -1.268366   -3.585711   -2.059021
     11          6           0       -2.661683    0.423623    0.028310
     12          6           0       -2.563593    1.948162   -0.036080
     13          6           0       -3.353998    2.638872    1.075663
     14          1           0       -3.718217    0.128194   -0.033750
     15          1           0       -2.298078    0.080146    1.006451
     16          1           0       -2.927294    2.288034   -1.014253
     17          1           0       -1.507456    2.240561    0.024691
     18          1           0       -2.987112    2.328276    2.059291
     19          1           0       -4.415017    2.376019    1.014444
     20          1           0       -3.270049    3.728181    1.010711
     21          6           0        2.926694    0.273431    0.344298
     22          6           0        2.864257    1.049653   -0.971592
     23          6           0        4.187172    1.733636   -1.317802
     24          1           0        3.209335    0.959625    1.154359
     25          1           0        3.724179   -0.479761    0.280157
     26          1           0        2.066210    1.800229   -0.905490
     27          1           0        2.581546    0.361570   -1.778582
     28          1           0        4.989914    0.995036   -1.410950
     29          1           0        4.471651    2.441870   -0.532897
     30          1           0        4.120124    2.282741   -2.262179
     31          6           0        1.611721   -0.415902    0.704011
     32          6           0        1.674157   -1.192123    2.019902
     33          6           0        0.351244   -1.876105    2.366112
     34          1           0        0.814236    0.337290    0.768153
     35          1           0        1.329079   -1.102095   -0.106049
     36          1           0        1.956870   -0.504041    2.826891
     37          1           0        2.472205   -1.942700    1.953800
     38          1           0        0.066765   -2.584341    1.581207
     39          1           0       -0.451500   -1.137508    2.459260
     40          1           0        0.418291   -2.425211    3.310489
 ---------------------------------------------------------------------
 Rotational constants (GHZ):           0.6402620           0.3577498           0.3269295
 Leave Link  202 at Wed May  5 15:06:37 2021, MaxMem=   524288000 cpu:               0.1 elap:               0.1
 (Enter /opt/gaussian/g16_legacy/l301.exe)
 Standard basis: 6-31G(d) (6D, 7F)
 Ernie: Thresh=  0.10000D-02 Tol=  0.10000D-05 Strict=F.
 There are   236 symmetry adapted cartesian basis functions of A   symmetry.
 There are   236 symmetry adapted basis functions of A   symmetry.
   236 basis functions,   448 primitive gaussians,   236 cartesian basis functions
    50 alpha electrons       50 beta electrons
       nuclear repulsion energy       732.6162653074 Hartrees.
 IExCor=    0 DFT=F Ex=HF Corr=None ExCW=0 ScaHFX=  1.000000
 ScaDFX=  1.000000  1.000000  1.000000  1.000000 ScalE2=  1.000000  1.000000
 IRadAn=      5 IRanWt=     -1 IRanGd=            0 ICorTp=0 IEmpDi=  4
 NAtoms=   40 NActive=   40 NUniq=   40 SFac= 1.00D+00 NAtFMM=   60 NAOKFM=F Big=F
 Integral buffers will be    131072 words long.
 Raffenetti 1 integral format.
 Two-electron integral symmetry is turned on.
 Leave Link  301 at Wed May  5 15:06:37 2021, MaxMem=   524288000 cpu:               0.2 elap:               0.2
 (Enter /opt/gaussian/g16_legacy/l302.exe)
 NPDir=0 NMtPBC=     1 NCelOv=     1 NCel=       1 NClECP=     1 NCelD=      1
         NCelK=      1 NCelE2=     1 NClLst=     1 CellRange=     0.0.
 One-electron integrals computed using PRISM.
 One-electron integral symmetry used in STVInt
 NBasis=   236 RedAO= T EigKep=  3.13D-03  NBF=   236
 NBsUse=   236 1.00D-06 EigRej= -1.00D+00 NBFU=   236
 Leave Link  302 at Wed May  5 15:06:38 2021, MaxMem=   524288000 cpu:               0.7 elap:               0.6
 (Enter /opt/gaussian/g16_legacy/l303.exe)
 DipDrv:  MaxL=1.
 Leave Link  303 at Wed May  5 15:06:38 2021, MaxMem=   524288000 cpu:               0.1 elap:               0.1
 (Enter /opt/gaussian/g16_legacy/l401.exe)
 ExpMin= 1.61D-01 ExpMax= 3.05D+03 ExpMxC= 4.57D+02 IAcc=3 IRadAn=         5 AccDes= 0.00D+00
 Harris functional with IExCor=  205 and IRadAn=       5 diagonalized for initial guess.
 HarFok:  IExCor=  205 AccDes= 0.00D+00 IRadAn=         5 IDoV= 1 UseB2=F ITyADJ=14
 ICtDFT=  3500011 ScaDFX=  1.000000  1.000000  1.000000  1.000000
 FoFCou: FMM=F IPFlag=           0 FMFlag=      100000 FMFlg1=           0
         NFxFlg=           0 DoJE=T BraDBF=F KetDBF=T FulRan=T
         wScrn=  0.000000 ICntrl=       500 IOpCl=  0 I1Cent=   200000004 NGrid=           0
         NMat0=    1 NMatS0=      1 NMatT0=    0 NMatD0=    1 NMtDS0=    0 NMtDT0=    0
 Petite list used in FoFCou.
 Harris En= -472.097880305879    
 JPrj=0 DoOrth=F DoCkMO=F.
 Leave Link  401 at Wed May  5 15:06:47 2021, MaxMem=   524288000 cpu:              17.8 elap:               9.3
 (Enter /opt/gaussian/g16_legacy/l502.exe)
 Keep R1 ints in memory in canonical form, NReq=397720540.
 FoFCou: FMM=F IPFlag=           0 FMFlag=           0 FMFlg1=           0
         NFxFlg=           0 DoJE=F BraDBF=F KetDBF=F FulRan=T
         wScrn=  0.000000 ICntrl=       600 IOpCl=  0 I1Cent=           0 NGrid=           0
         NMat0=    1 NMatS0=  27966 NMatT0=    0 NMatD0=    1 NMtDS0=    0 NMtDT0=    0
 Symmetry not used in FoFCou.
 Two-electron integral symmetry not used.
 Closed shell SCF:
 Using DIIS extrapolation, IDIIS=  1040.
 NGot=   524288000 LenX=   133109463 LenY=   133053326
 Requested convergence on RMS density matrix=1.00D-08 within 128 cycles.
 Requested convergence on MAX density matrix=1.00D-06.
 Requested convergence on             energy=1.00D-06.
 No special actions if energy rises.

 Cycle   1  Pass 1  IDiag  1:
 E= -469.875545267187    
 DIIS: error= 5.74D-02 at cycle   1 NSaved=   1.
 NSaved= 1 IEnMin= 1 EnMin= -469.875545267187     IErMin= 1 ErrMin= 5.74D-02
 ErrMax= 5.74D-02  0.00D+00 EMaxC= 1.00D-01 BMatC= 1.06D+00 BMatP= 1.06D+00
 IDIUse=3 WtCom= 4.26D-01 WtEn= 5.74D-01
 Coeff-Com:  0.100D+01
 Coeff-En:   0.100D+01
 Coeff:      0.100D+01
 Gap=     0.611 Goal=   None    Shift=    0.000
 GapD=    0.611 DampG=2.000 DampE=0.500 DampFc=1.0000 IDamp=-1.
 RMSDP=4.71D-03 MaxDP=1.17D-01              OVMax= 1.34D-01

 Cycle   2  Pass 1  IDiag  1:
 E= -470.595427755740     Delta-E=       -0.719882488553 Rises=F Damp=F
 DIIS: error= 1.91D-02 at cycle   2 NSaved=   2.
 NSaved= 2 IEnMin= 2 EnMin= -470.595427755740     IErMin= 2 ErrMin= 1.91D-02
 ErrMax= 1.91D-02  0.00D+00 EMaxC= 1.00D-01 BMatC= 1.45D-01 BMatP= 1.06D+00
 IDIUse=3 WtCom= 8.09D-01 WtEn= 1.91D-01
 Coeff-Com:  0.218D+00 0.782D+00
 Coeff-En:   0.000D+00 0.100D+01
 Coeff:      0.177D+00 0.823D+00
 Gap=     0.660 Goal=   None    Shift=    0.000
 RMSDP=1.72D-03 MaxDP=3.31D-02 DE=-7.20D-01 OVMax= 4.76D-02

 Cycle   3  Pass 1  IDiag  1:
 E= -470.726216371086     Delta-E=       -0.130788615347 Rises=F Damp=F
 DIIS: error= 4.07D-03 at cycle   3 NSaved=   3.
 NSaved= 3 IEnMin= 3 EnMin= -470.726216371086     IErMin= 3 ErrMin= 4.07D-03
 ErrMax= 4.07D-03  0.00D+00 EMaxC= 1.00D-01 BMatC= 4.74D-03 BMatP= 1.45D-01
 IDIUse=3 WtCom= 9.59D-01 WtEn= 4.07D-02
 Coeff-Com: -0.263D-01 0.104D+00 0.922D+00
 Coeff-En:   0.000D+00 0.000D+00 0.100D+01
 Coeff:     -0.252D-01 0.997D-01 0.925D+00
 Gap=     0.634 Goal=   None    Shift=    0.000
 RMSDP=2.77D-04 MaxDP=6.46D-03 DE=-1.31D-01 OVMax= 9.45D-03

 Cycle   4  Pass 1  IDiag  1:
 E= -470.731601470421     Delta-E=       -0.005385099335 Rises=F Damp=F
 DIIS: error= 5.43D-04 at cycle   4 NSaved=   4.
 NSaved= 4 IEnMin= 4 EnMin= -470.731601470421     IErMin= 4 ErrMin= 5.43D-04
 ErrMax= 5.43D-04  0.00D+00 EMaxC= 1.00D-01 BMatC= 6.29D-05 BMatP= 4.74D-03
 IDIUse=3 WtCom= 9.95D-01 WtEn= 5.43D-03
 Coeff-Com:  0.119D-02-0.216D-01-0.879D-01 0.111D+01
 Coeff-En:   0.000D+00 0.000D+00 0.000D+00 0.100D+01
 Coeff:      0.119D-02-0.215D-01-0.874D-01 0.111D+01
 Gap=     0.634 Goal=   None    Shift=    0.000
 RMSDP=6.13D-05 MaxDP=1.10D-03 DE=-5.39D-03 OVMax= 1.78D-03

 Cycle   5  Pass 1  IDiag  1:
 E= -470.731707298535     Delta-E=       -0.000105828114 Rises=F Damp=F
 DIIS: error= 1.46D-04 at cycle   5 NSaved=   5.
 NSaved= 5 IEnMin= 5 EnMin= -470.731707298535     IErMin= 5 ErrMin= 1.46D-04
 ErrMax= 1.46D-04  0.00D+00 EMaxC= 1.00D-01 BMatC= 6.51D-06 BMatP= 6.29D-05
 IDIUse=3 WtCom= 9.99D-01 WtEn= 1.46D-03
 Coeff-Com:  0.218D-02-0.120D-01-0.832D-01 0.182D+00 0.911D+00
 Coeff-En:   0.000D+00 0.000D+00 0.000D+00 0.000D+00 0.100D+01
 Coeff:      0.218D-02-0.120D-01-0.831D-01 0.182D+00 0.911D+00
 Gap=     0.634 Goal=   None    Shift=    0.000
 RMSDP=1.61D-05 MaxDP=3.24D-04 DE=-1.06D-04 OVMax= 4.78D-04

 Cycle   6  Pass 1  IDiag  1:
 E= -470.731716486678     Delta-E=       -0.000009188142 Rises=F Damp=F
 DIIS: error= 2.40D-05 at cycle   6 NSaved=   6.
 NSaved= 6 IEnMin= 6 EnMin= -470.731716486678     IErMin= 6 ErrMin= 2.40D-05
 ErrMax= 2.40D-05  0.00D+00 EMaxC= 1.00D-01 BMatC= 1.45D-07 BMatP= 6.51D-06
 IDIUse=1 WtCom= 1.00D+00 WtEn= 0.00D+00
 Coeff-Com:  0.155D-03-0.364D-03-0.388D-02-0.307D-01 0.697D-01 0.965D+00
 Coeff:      0.155D-03-0.364D-03-0.388D-02-0.307D-01 0.697D-01 0.965D+00
 Gap=     0.634 Goal=   None    Shift=    0.000
 RMSDP=3.35D-06 MaxDP=6.07D-05 DE=-9.19D-06 OVMax= 9.75D-05

 Cycle   7  Pass 1  IDiag  1:
 E= -470.731716729421     Delta-E=       -0.000000242743 Rises=F Damp=F
 DIIS: error= 3.91D-06 at cycle   7 NSaved=   7.
 NSaved= 7 IEnMin= 7 EnMin= -470.731716729421     IErMin= 7 ErrMin= 3.91D-06
 ErrMax= 3.91D-06  0.00D+00 EMaxC= 1.00D-01 BMatC= 5.42D-09 BMatP= 1.45D-07
 IDIUse=1 WtCom= 1.00D+00 WtEn= 0.00D+00
 Coeff-Com: -0.559D-04 0.341D-03 0.245D-02-0.682D-02-0.257D-01 0.144D-01
 Coeff-Com:  0.102D+01
 Coeff:     -0.559D-04 0.341D-03 0.245D-02-0.682D-02-0.257D-01 0.144D-01
 Coeff:      0.102D+01
 Gap=     0.634 Goal=   None    Shift=    0.000
 RMSDP=7.45D-07 MaxDP=1.37D-05 DE=-2.43D-07 OVMax= 2.15D-05

 Cycle   8  Pass 1  IDiag  1:
 E= -470.731716739223     Delta-E=       -0.000000009802 Rises=F Damp=F
 DIIS: error= 1.50D-06 at cycle   8 NSaved=   8.
 NSaved= 8 IEnMin= 8 EnMin= -470.731716739223     IErMin= 8 ErrMin= 1.50D-06
 ErrMax= 1.50D-06  0.00D+00 EMaxC= 1.00D-01 BMatC= 5.90D-10 BMatP= 5.42D-09
 IDIUse=1 WtCom= 1.00D+00 WtEn= 0.00D+00
 Coeff-Com: -0.165D-04 0.653D-04 0.569D-03 0.118D-02-0.748D-02-0.641D-01
 Coeff-Com:  0.140D+00 0.930D+00
 Coeff:     -0.165D-04 0.653D-04 0.569D-03 0.118D-02-0.748D-02-0.641D-01
 Coeff:      0.140D+00 0.930D+00
 Gap=     0.634 Goal=   None    Shift=    0.000
 RMSDP=1.99D-07 MaxDP=4.17D-06 DE=-9.80D-09 OVMax= 7.04D-06

 Cycle   9  Pass 1  IDiag  1:
 E= -470.731716740203     Delta-E=       -0.000000000980 Rises=F Damp=F
 DIIS: error= 3.55D-07 at cycle   9 NSaved=   9.
 NSaved= 9 IEnMin= 9 EnMin= -470.731716740203     IErMin= 9 ErrMin= 3.55D-07
 ErrMax= 3.55D-07  0.00D+00 EMaxC= 1.00D-01 BMatC= 3.95D-11 BMatP= 5.90D-10
 IDIUse=1 WtCom= 1.00D+00 WtEn= 0.00D+00
 Coeff-Com:  0.513D-05-0.308D-04-0.225D-03 0.490D-03 0.262D-02 0.195D-02
 Coeff-Com: -0.893D-01-0.480D-01 0.113D+01
 Coeff:      0.513D-05-0.308D-04-0.225D-03 0.490D-03 0.262D-02 0.195D-02
 Coeff:     -0.893D-01-0.480D-01 0.113D+01
 Gap=     0.634 Goal=   None    Shift=    0.000
 RMSDP=7.25D-08 MaxDP=1.24D-06 DE=-9.80D-10 OVMax= 2.26D-06

 Cycle  10  Pass 1  IDiag  1:
 E= -470.731716740312     Delta-E=       -0.000000000109 Rises=F Damp=F
 DIIS: error= 6.66D-08 at cycle  10 NSaved=  10.
 NSaved=10 IEnMin=10 EnMin= -470.731716740312     IErMin=10 ErrMin= 6.66D-08
 ErrMax= 6.66D-08  0.00D+00 EMaxC= 1.00D-01 BMatC= 1.77D-12 BMatP= 3.95D-11
 IDIUse=1 WtCom= 1.00D+00 WtEn= 0.00D+00
 Coeff-Com:  0.512D-06-0.142D-05-0.167D-04-0.122D-03 0.266D-03 0.401D-02
 Coeff-Com: -0.141D-02-0.574D-01-0.858D-01 0.114D+01
 Coeff:      0.512D-06-0.142D-05-0.167D-04-0.122D-03 0.266D-03 0.401D-02
 Coeff:     -0.141D-02-0.574D-01-0.858D-01 0.114D+01
 Gap=     0.634 Goal=   None    Shift=    0.000
 RMSDP=1.55D-08 MaxDP=3.39D-07 DE=-1.09D-10 OVMax= 5.33D-07

 Cycle  11  Pass 1  IDiag  1:
 E= -470.731716740311     Delta-E=        0.000000000001 Rises=F Damp=F
 DIIS: error= 1.16D-08 at cycle  11 NSaved=  11.
 NSaved=11 IEnMin=10 EnMin= -470.731716740312     IErMin=11 ErrMin= 1.16D-08
 ErrMax= 1.16D-08  0.00D+00 EMaxC= 1.00D-01 BMatC= 5.79D-14 BMatP= 1.77D-12
 IDIUse=1 WtCom= 1.00D+00 WtEn= 0.00D+00
 Coeff-Com: -0.193D-06 0.116D-05 0.821D-05-0.884D-05-0.105D-03-0.284D-03
 Coeff-Com:  0.297D-02 0.466D-02-0.289D-01-0.797D-01 0.110D+01
 Coeff:     -0.193D-06 0.116D-05 0.821D-05-0.884D-05-0.105D-03-0.284D-03
 Coeff:      0.297D-02 0.466D-02-0.289D-01-0.797D-01 0.110D+01
 Gap=     0.634 Goal=   None    Shift=    0.000
 RMSDP=2.21D-09 MaxDP=4.82D-08 DE= 9.09D-13 OVMax= 7.23D-08

 SCF Done:  E(RHF) =  -470.731716740     A.U. after   11 cycles
            NFock= 11  Conv=0.22D-08     -V/T= 2.0011
 KE= 4.702371624031D+02 PE=-2.558358175829D+03 EE= 8.847730313779D+02
 Leave Link  502 at Wed May  5 15:07:07 2021, MaxMem=   524288000 cpu:              29.0 elap:              19.2
 (Enter /opt/gaussian/g16_legacy/l801.exe)
 ExpMin= 1.61D-01 ExpMax= 3.05D+03 ExpMxC= 4.57D+02 IAcc=3 IRadAn=         5 AccDes= 0.00D+00
 HarFok:  IExCor=  205 AccDes= 0.00D+00 IRadAn=         5 IDoV=-2 UseB2=F ITyADJ=14
 ICtDFT= 12500011 ScaDFX=  1.000000  1.000000  1.000000  1.000000
 Largest valence mixing into a core orbital is  1.98D-04
 Largest core mixing into a valence orbital is  3.29D-05
 Range of M.O.s used for correlation:    13   236
 NBasis=   236 NAE=    50 NBE=    50 NFC=    12 NFV=     0
 NROrb=    224 NOA=    38 NOB=    38 NVA=   186 NVB=   186
 Leave Link  801 at Wed May  5 15:07:08 2021, MaxMem=   524288000 cpu:               2.2 elap:               1.1
 (Enter /opt/gaussian/g16_legacy/l906.exe)
 FulOut=F Deriv=F AODrv=F NAtomX=    40
   MMem=         154  MDisk=          38 MDiskD=          38
  W3Min=     1668048 MinDsk=     1838182 NBas6D=         236
 NBas2D=       28290    NTT=       27966    LW2=     2000000
    MDV=   523909540 MDiskM=       30715 NBas2p=       22719
 Fully direct method using O(OVN) memory.
 IMap=   1   2   3   4   5   6   7   8   9  10  11  12  13  14  15  16  17  18  19  20
 IMap=  21  22  23  24  25  26  27  28  29  30  31  32  33  34  35  36  37  38
 JobTyp=1 Pass  1:  I=   1 to  38 NPSUse=  2 ParTrn=T ParDer=T DoDerP=F.
 Spin components of T(2) and E(2):
     alpha-alpha T2 =       0.6319439584D-01 E2=     -0.1850369078D+00
     alpha-beta  T2 =       0.4051090189D+00 E2=     -0.1216270993D+01
     beta-beta   T2 =       0.6319439584D-01 E2=     -0.1850369078D+00
 The integrals were generated   1 times.
 ANorm=    0.1237536994D+01
 E2 =    -0.1586344809D+01 EUMP2 =    -0.47231806154906D+03
 Leave Link  906 at Wed May  5 15:08:03 2021, MaxMem=   524288000 cpu:             105.6 elap:              54.7
 (Enter /opt/gaussian/g16_legacy/l601.exe)
 Copying SCF densities to generalized density rwf, IOpCl= 0 IROHF=0.

 **********************************************************************

            Population analysis using the SCF density.

 **********************************************************************

 Orbital symmetries:
       Occupied  (A) (A) (A) (A) (A) (A) (A) (A) (A) (A) (A) (A)
                 (A) (A) (A) (A) (A) (A) (A) (A) (A) (A) (A) (A)
                 (A) (A) (A) (A) (A) (A) (A) (A) (A) (A) (A) (A)
                 (A) (A) (A) (A) (A) (A) (A) (A) (A) (A) (A) (A)
                 (A) (A)
       Virtual   (A) (A) (A) (A) (A) (A) (A) (A) (A) (A) (A) (A)
                 (A) (A) (A) (A) (A) (A) (A) (A) (A) (A) (A) (A)
                 (A) (A) (A) (A) (A) (A) (A) (A) (A) (A) (A) (A)
                 (A) (A) (A) (A) (A) (A) (A) (A) (A) (A) (A) (A)
                 (A) (A) (A) (A) (A) (A) (A) (A) (A) (A) (A) (A)
                 (A) (A) (A) (A) (A) (A) (A) (A) (A) (A) (A) (A)
                 (A) (A) (A) (A) (A) (A) (A) (A) (A) (A) (A) (A)
                 (A) (A) (A) (A) (A) (A) (A) (A) (A) (A) (A) (A)
                 (A) (A) (A) (A) (A) (A) (A) (A) (A) (A) (A) (A)
                 (A) (A) (A) (A) (A) (A) (A) (A) (A) (A) (A) (A)
                 (A) (A) (A) (A) (A) (A) (A) (A) (A) (A) (A) (A)
                 (A) (A) (A) (A) (A) (A) (A) (A) (A) (A) (A) (A)
                 (A) (A) (A) (A) (A) (A) (A) (A) (A) (A) (A) (A)
                 (A) (A) (A) (A) (A) (A) (A) (A) (A) (A) (A) (A)
                 (A) (A) (A) (A) (A) (A) (A) (A) (A) (A) (A) (A)
                 (A) (A) (A) (A) (A) (A)
 The electronic state is 1-A.
 Alpha  occ. eigenvalues --  -11.21714 -11.21687 -11.21594 -11.21510 -11.21447
 Alpha  occ. eigenvalues --  -11.21441 -11.21313 -11.21179 -11.21162 -11.21128
 Alpha  occ. eigenvalues --  -11.21074 -11.21040  -1.08577  -1.08319  -1.03641
 Alpha  occ. eigenvalues --   -1.03469  -0.96090  -0.95928  -0.87107  -0.86947
 Alpha  occ. eigenvalues --   -0.79712  -0.79537  -0.78461  -0.78097  -0.65198
 Alpha  occ. eigenvalues --   -0.64993  -0.61153  -0.60790  -0.59426  -0.59302
 Alpha  occ. eigenvalues --   -0.57724  -0.57546  -0.55376  -0.55236  -0.52770
 Alpha  occ. eigenvalues --   -0.52676  -0.52537  -0.52341  -0.50143  -0.49792
 Alpha  occ. eigenvalues --   -0.48140  -0.47814  -0.46814  -0.46447  -0.46340
 Alpha  occ. eigenvalues --   -0.45794  -0.45538  -0.45096  -0.43882  -0.43706
 Alpha virt. eigenvalues --    0.19727   0.21947   0.22767   0.24160   0.25317
 Alpha virt. eigenvalues --    0.25978   0.26340   0.28316   0.28971   0.30231
 Alpha virt. eigenvalues --    0.30859   0.31280   0.31500   0.31797   0.32317
 Alpha virt. eigenvalues --    0.32713   0.32968   0.33260   0.34132   0.34609
 Alpha virt. eigenvalues --    0.35006   0.35524   0.36068   0.36345   0.37499
 Alpha virt. eigenvalues --    0.37801   0.38694   0.39522   0.41076   0.42682
 Alpha virt. eigenvalues --    0.43547   0.44201   0.45482   0.45703   0.45912
 Alpha virt. eigenvalues --    0.46268   0.48064   0.48590   0.68613   0.69428
 Alpha virt. eigenvalues --    0.69794   0.70103   0.71845   0.72325   0.74953
 Alpha virt. eigenvalues --    0.75725   0.76335   0.77460   0.78082   0.78874
 Alpha virt. eigenvalues --    0.80770   0.83482   0.84485   0.85259   0.86947
 Alpha virt. eigenvalues --    0.87491   0.88054   0.90221   0.95625   0.96092
 Alpha virt. eigenvalues --    0.96276   0.96955   0.98373   0.98847   1.01577
 Alpha virt. eigenvalues --    1.01754   1.04330   1.06837   1.07648   1.08522
 Alpha virt. eigenvalues --    1.10992   1.11344   1.11471   1.12960   1.15849
 Alpha virt. eigenvalues --    1.16318   1.16772   1.16979   1.17380   1.17993
 Alpha virt. eigenvalues --    1.18470   1.18809   1.19036   1.19894   1.20313
 Alpha virt. eigenvalues --    1.20667   1.21008   1.21340   1.21966   1.22391
 Alpha virt. eigenvalues --    1.22830   1.23457   1.24171   1.24522   1.25485
 Alpha virt. eigenvalues --    1.26655   1.27136   1.30575   1.31056   1.34816
 Alpha virt. eigenvalues --    1.36531   1.37899   1.40767   1.44001   1.55506
 Alpha virt. eigenvalues --    1.56499   1.66248   1.66387   1.67216   1.67392
 Alpha virt. eigenvalues --    1.71499   1.72159   1.72954   1.74962   1.79363
 Alpha virt. eigenvalues --    1.80196   1.81196   1.81406   1.92604   1.93098
 Alpha virt. eigenvalues --    2.05570   2.05818   2.13059   2.13445   2.14665
 Alpha virt. eigenvalues --    2.15488   2.17739   2.18465   2.22291   2.22552
 Alpha virt. eigenvalues --    2.25276   2.25672   2.26054   2.27798   2.27861
 Alpha virt. eigenvalues --    2.28608   2.32411   2.33676   2.33848   2.35240
 Alpha virt. eigenvalues --    2.36158   2.37579   2.39655   2.40218   2.42981
 Alpha virt. eigenvalues --    2.43416   2.56675   2.56843   2.56972   2.57502
 Alpha virt. eigenvalues --    2.59527   2.60423   2.66871   2.67522   2.67614
 Alpha virt. eigenvalues --    2.67702   2.67903   2.68517   2.76939   2.77393
 Alpha virt. eigenvalues --    2.77732   2.78346   2.80128   2.80240   2.91303
 Alpha virt. eigenvalues --    2.91622   2.94935   2.96520   2.98572   2.98988
 Alpha virt. eigenvalues --    3.13757   3.13968   3.18665   3.18776   4.55251
 Alpha virt. eigenvalues --    4.57911   4.62996   4.63159   4.71713   4.73730
 Alpha virt. eigenvalues --    4.80123   4.81239   4.87879   4.89249   5.00318
 Alpha virt. eigenvalues --    5.02184
          Condensed to atoms (all electrons):
               1          2          3          4          5          6
     1  C    5.092415   0.350940  -0.056989   0.395964   0.396901  -0.043595
     2  C    0.350940   5.070281   0.340075  -0.041858  -0.041404   0.399018
     3  C   -0.056989   0.340075   5.101767  -0.002915  -0.002861  -0.039802
     4  H    0.395964  -0.041858  -0.002915   0.568294  -0.031528  -0.002983
     5  H    0.396901  -0.041404  -0.002861  -0.031528   0.557145   0.004495
     6  H   -0.043595   0.399018  -0.039802  -0.002983   0.004495   0.564746
     7  H   -0.043341   0.399057  -0.040275   0.004515  -0.003073  -0.031549
     8  H   -0.003734  -0.039161   0.390798   0.000173   0.002287   0.004201
     9  H   -0.003794  -0.038707   0.391017   0.002632   0.000185  -0.002878
    10  H    0.004400  -0.035888   0.393908  -0.000058  -0.000052  -0.002506
    11  C    0.354521  -0.051554   0.004058  -0.041664  -0.041366  -0.003203
    12  C   -0.051647   0.003969  -0.000085  -0.003293  -0.003316  -0.000064
    13  C    0.004067  -0.000085   0.000001  -0.000051  -0.000044  -0.000000
    14  H   -0.041595  -0.003234  -0.000052  -0.002818   0.004399   0.002393
    15  H   -0.041642  -0.003208  -0.000046   0.004430  -0.002920   0.000257
    16  H   -0.003188  -0.000066  -0.000000   0.002413   0.000269   0.000017
    17  H   -0.003105  -0.000059  -0.000000   0.000239   0.002084  -0.000003
    18  H   -0.000071  -0.000000  -0.000000  -0.000001   0.000014   0.000000
    19  H   -0.000071  -0.000000  -0.000000   0.000013  -0.000002  -0.000002
    20  H   -0.000087   0.000001  -0.000000   0.000001   0.000001   0.000000
    21  C    0.000033  -0.000000   0.000005  -0.000000  -0.000132  -0.000000
    22  C   -0.000031   0.000000  -0.000006  -0.000001   0.000215  -0.000000
    23  C    0.000001  -0.000000   0.000000  -0.000000  -0.000002   0.000000
    24  H   -0.000001   0.000000  -0.000000   0.000000   0.000003   0.000000
    25  H   -0.000001   0.000000   0.000000   0.000000   0.000002  -0.000000
    26  H   -0.000023  -0.000000   0.000000   0.000000   0.000241   0.000000
    27  H   -0.000016  -0.000002  -0.000002   0.000000   0.000165   0.000000
    28  H   -0.000000   0.000000  -0.000000   0.000000   0.000000  -0.000000
    29  H   -0.000000   0.000000  -0.000000   0.000000   0.000000  -0.000000
    30  H    0.000000   0.000000  -0.000000   0.000000  -0.000000   0.000000
    31  C   -0.001161   0.000243  -0.000273   0.000016  -0.000393  -0.000003
    32  C    0.000047   0.000033   0.000006  -0.000000  -0.000002   0.000000
    33  C    0.000175  -0.000848   0.000012  -0.000002   0.000058   0.000012
    34  H   -0.000978   0.000010   0.000003   0.000024   0.000146  -0.000001
    35  H   -0.000577  -0.000061  -0.000062   0.000009   0.000278   0.000006
    36  H   -0.000001  -0.000001  -0.000000   0.000000   0.000002   0.000000
    37  H   -0.000001  -0.000001   0.000000   0.000000   0.000000  -0.000000
    38  H    0.000015  -0.000735   0.000144  -0.000000   0.000013   0.000017
    39  H   -0.000018  -0.000104  -0.000001   0.000002  -0.000009   0.000001
    40  H   -0.000001   0.000016  -0.000000   0.000000  -0.000001  -0.000000
               7          8          9         10         11         12
     1  C   -0.043341  -0.003734  -0.003794   0.004400   0.354521  -0.051647
     2  C    0.399057  -0.039161  -0.038707  -0.035888  -0.051554   0.003969
     3  C   -0.040275   0.390798   0.391017   0.393908   0.004058  -0.000085
     4  H    0.004515   0.000173   0.002632  -0.000058  -0.041664  -0.003293
     5  H   -0.003073   0.002287   0.000185  -0.000052  -0.041366  -0.003316
     6  H   -0.031549   0.004201  -0.002878  -0.002506  -0.003203  -0.000064
     7  H    0.556193  -0.003044   0.004249  -0.002513  -0.003102  -0.000058
     8  H   -0.003044   0.548211  -0.028962  -0.027600  -0.000064  -0.000000
     9  H    0.004249  -0.028962   0.548265  -0.027465  -0.000070  -0.000000
    10  H   -0.002513  -0.027600  -0.027465   0.538215  -0.000087   0.000001
    11  C   -0.003102  -0.000064  -0.000070  -0.000087   5.090057   0.351490
    12  C   -0.000058  -0.000000  -0.000000   0.000001   0.351490   5.062721
    13  C   -0.000000  -0.000000  -0.000000  -0.000000  -0.057438   0.340372
    14  H    0.000257  -0.000002   0.000013   0.000001   0.396095  -0.041781
    15  H    0.002033   0.000015  -0.000002   0.000001   0.395805  -0.041914
    16  H   -0.000004   0.000000  -0.000002   0.000000  -0.043479   0.399109
    17  H    0.000018  -0.000001   0.000000   0.000000  -0.043875   0.398875
    18  H   -0.000002   0.000000  -0.000000  -0.000000  -0.003742  -0.038976
    19  H    0.000000  -0.000000   0.000000  -0.000000  -0.003772  -0.038839
    20  H    0.000000  -0.000000  -0.000000   0.000000   0.004401  -0.035862
    21  C   -0.000001  -0.000014  -0.000000  -0.000000   0.000000   0.000002
    22  C   -0.000000   0.000007   0.000000   0.000000   0.000001  -0.000007
    23  C   -0.000000  -0.000000  -0.000000  -0.000000  -0.000000   0.000000
    24  H    0.000000   0.000000   0.000000   0.000000   0.000000   0.000000
    25  H    0.000000  -0.000001  -0.000000  -0.000000   0.000000  -0.000000
    26  H    0.000000  -0.000001   0.000000  -0.000000  -0.000003  -0.000001
    27  H   -0.000000   0.000118  -0.000000  -0.000000   0.000000   0.000000
    28  H   -0.000000  -0.000000   0.000000   0.000000   0.000000  -0.000000
    29  H   -0.000000   0.000000  -0.000000   0.000000   0.000000  -0.000000
    30  H    0.000000  -0.000000   0.000000   0.000000   0.000000   0.000000
    31  C    0.000175  -0.000058   0.000004   0.000004   0.000094  -0.000077
    32  C   -0.000092  -0.000006  -0.000000  -0.000000   0.000007   0.000001
    33  C   -0.000221   0.000003   0.000000   0.000000  -0.000295   0.000005
    34  H    0.000036  -0.000014  -0.000000   0.000000   0.000070   0.000025
    35  H   -0.000019   0.001375  -0.000004  -0.000002   0.000012   0.000001
    36  H    0.000001   0.000000   0.000000   0.000000  -0.000000   0.000000
    37  H    0.000004   0.000000  -0.000000  -0.000000  -0.000000  -0.000000
    38  H    0.000851   0.000054  -0.000002   0.000014  -0.000009   0.000000
    39  H    0.000248   0.000000  -0.000000  -0.000000  -0.000099  -0.000003
    40  H    0.000027  -0.000000   0.000000  -0.000000   0.000004  -0.000000
              13         14         15         16         17         18
     1  C    0.004067  -0.041595  -0.041642  -0.003188  -0.003105  -0.000071
     2  C   -0.000085  -0.003234  -0.003208  -0.000066  -0.000059  -0.000000
     3  C    0.000001  -0.000052  -0.000046  -0.000000  -0.000000  -0.000000
     4  H   -0.000051  -0.002818   0.004430   0.002413   0.000239  -0.000001
     5  H   -0.000044   0.004399  -0.002920   0.000269   0.002084   0.000014
     6  H   -0.000000   0.002393   0.000257   0.000017  -0.000003   0.000000
     7  H   -0.000000   0.000257   0.002033  -0.000004   0.000018  -0.000002
     8  H   -0.000000  -0.000002   0.000015   0.000000  -0.000001   0.000000
     9  H   -0.000000   0.000013  -0.000002  -0.000002   0.000000  -0.000000
    10  H   -0.000000   0.000001   0.000001   0.000000   0.000000  -0.000000
    11  C   -0.057438   0.396095   0.395805  -0.043479  -0.043875  -0.003742
    12  C    0.340372  -0.041781  -0.041914   0.399109   0.398875  -0.038976
    13  C    5.097713  -0.002875  -0.002842  -0.039875  -0.040028   0.391162
    14  H   -0.002875   0.566714  -0.031425  -0.002974   0.004564   0.000159
    15  H   -0.002842  -0.031425   0.562881   0.004546  -0.003037   0.002625
    16  H   -0.039875  -0.002974   0.004546   0.563546  -0.031550   0.004222
    17  H   -0.040028   0.004564  -0.003037  -0.031550   0.565119  -0.002876
    18  H    0.391162   0.000159   0.002625   0.004222  -0.002876   0.549695
    19  H    0.391335   0.002613   0.000159  -0.002879   0.004217  -0.029118
    20  H    0.394074  -0.000058  -0.000059  -0.002508  -0.002500  -0.027565
    21  C   -0.000000  -0.000000  -0.000001  -0.000000  -0.000008  -0.000000
    22  C    0.000000  -0.000000  -0.000000   0.000000   0.000004   0.000000
    23  C   -0.000000   0.000000  -0.000000  -0.000000  -0.000000   0.000000
    24  H    0.000000  -0.000000   0.000000  -0.000000  -0.000001  -0.000000
    25  H    0.000000   0.000000   0.000000   0.000000   0.000000   0.000000
    26  H   -0.000000   0.000000  -0.000000  -0.000001   0.000169  -0.000000
    27  H   -0.000000   0.000000   0.000000   0.000000  -0.000001   0.000000
    28  H    0.000000  -0.000000  -0.000000  -0.000000   0.000000  -0.000000
    29  H    0.000000  -0.000000  -0.000000  -0.000000  -0.000000  -0.000000
    30  H   -0.000000   0.000000   0.000000   0.000000  -0.000000   0.000000
    31  C    0.000001  -0.000001   0.000070   0.000001  -0.000010   0.000000
    32  C    0.000000   0.000000  -0.000034  -0.000000  -0.000002  -0.000000
    33  C   -0.000000   0.000004  -0.000041  -0.000000   0.000001  -0.000000
    34  H   -0.000008   0.000003   0.000195  -0.000003   0.000691   0.000001
    35  H    0.000000  -0.000000   0.000002  -0.000000  -0.000007  -0.000000
    36  H    0.000000  -0.000000   0.000000  -0.000000  -0.000000  -0.000000
    37  H   -0.000000   0.000000   0.000001  -0.000000   0.000000   0.000000
    38  H    0.000000  -0.000000  -0.000005  -0.000000  -0.000000  -0.000000
    39  H   -0.000002  -0.000001   0.001471   0.000000   0.000003   0.000007
    40  H    0.000000  -0.000000  -0.000002   0.000000  -0.000000   0.000000
              19         20         21         22         23         24
     1  C   -0.000071  -0.000087   0.000033  -0.000031   0.000001  -0.000001
     2  C   -0.000000   0.000001  -0.000000   0.000000  -0.000000   0.000000
     3  C   -0.000000  -0.000000   0.000005  -0.000006   0.000000  -0.000000
     4  H    0.000013   0.000001  -0.000000  -0.000001  -0.000000   0.000000
     5  H   -0.000002   0.000001  -0.000132   0.000215  -0.000002   0.000003
     6  H   -0.000002   0.000000  -0.000000  -0.000000   0.000000   0.000000
     7  H    0.000000   0.000000  -0.000001  -0.000000  -0.000000   0.000000
     8  H   -0.000000  -0.000000  -0.000014   0.000007  -0.000000   0.000000
     9  H    0.000000  -0.000000  -0.000000   0.000000  -0.000000   0.000000
    10  H   -0.000000   0.000000  -0.000000   0.000000  -0.000000   0.000000
    11  C   -0.003772   0.004401   0.000000   0.000001  -0.000000   0.000000
    12  C   -0.038839  -0.035862   0.000002  -0.000007   0.000000   0.000000
    13  C    0.391335   0.394074  -0.000000   0.000000  -0.000000   0.000000
    14  H    0.002613  -0.000058  -0.000000  -0.000000   0.000000  -0.000000
    15  H    0.000159  -0.000059  -0.000001  -0.000000  -0.000000   0.000000
    16  H   -0.002879  -0.002508  -0.000000   0.000000  -0.000000  -0.000000
    17  H    0.004217  -0.002500  -0.000008   0.000004  -0.000000  -0.000001
    18  H   -0.029118  -0.027565  -0.000000   0.000000   0.000000  -0.000000
    19  H    0.548299  -0.027475   0.000000  -0.000000   0.000000   0.000000
    20  H   -0.027475   0.537541  -0.000000   0.000000  -0.000000   0.000000
    21  C    0.000000  -0.000000   5.085555   0.351880  -0.057384   0.395763
    22  C   -0.000000   0.000000   0.351880   5.062529   0.340628  -0.041816
    23  C    0.000000  -0.000000  -0.057384   0.340628   5.096829  -0.002884
    24  H    0.000000   0.000000   0.395763  -0.041816  -0.002884   0.566368
    25  H   -0.000000  -0.000000   0.395800  -0.041880  -0.002892  -0.031261
    26  H    0.000000  -0.000000  -0.043759   0.398969  -0.039657  -0.002961
    27  H    0.000000   0.000000  -0.043777   0.399066  -0.039690   0.004563
    28  H   -0.000000  -0.000000  -0.003785  -0.038965   0.391367   0.000164
    29  H   -0.000000   0.000000  -0.003794  -0.038960   0.391346   0.002628
    30  H   -0.000000  -0.000000   0.004396  -0.035780   0.394148  -0.000059
    31  C   -0.000000   0.000000   0.353860  -0.051895   0.004020  -0.041145
    32  C    0.000000   0.000000  -0.051559   0.003979  -0.000082  -0.003378
    33  C    0.000000   0.000000   0.004044  -0.000085   0.000001  -0.000051
    34  H    0.000000  -0.000000  -0.041292  -0.003383  -0.000040  -0.002927
    35  H   -0.000000   0.000000  -0.041260  -0.003347  -0.000040   0.004368
    36  H    0.000000  -0.000000  -0.003328  -0.000064  -0.000001   0.002423
    37  H   -0.000000  -0.000000  -0.003315  -0.000065  -0.000001   0.000256
    38  H   -0.000000  -0.000000  -0.000066  -0.000000  -0.000000  -0.000002
    39  H   -0.000000  -0.000000  -0.000067  -0.000000  -0.000000   0.000013
    40  H    0.000000  -0.000000  -0.000083   0.000001  -0.000000   0.000001
              25         26         27         28         29         30
     1  C   -0.000001  -0.000023  -0.000016  -0.000000  -0.000000   0.000000
     2  C    0.000000  -0.000000  -0.000002   0.000000   0.000000   0.000000
     3  C    0.000000   0.000000  -0.000002  -0.000000  -0.000000  -0.000000
     4  H    0.000000   0.000000   0.000000   0.000000   0.000000   0.000000
     5  H    0.000002   0.000241   0.000165   0.000000   0.000000  -0.000000
     6  H   -0.000000   0.000000   0.000000  -0.000000  -0.000000   0.000000
     7  H    0.000000   0.000000  -0.000000  -0.000000  -0.000000   0.000000
     8  H   -0.000001  -0.000001   0.000118  -0.000000   0.000000  -0.000000
     9  H   -0.000000   0.000000  -0.000000   0.000000  -0.000000   0.000000
    10  H   -0.000000  -0.000000  -0.000000   0.000000   0.000000   0.000000
    11  C    0.000000  -0.000003   0.000000   0.000000   0.000000   0.000000
    12  C   -0.000000  -0.000001   0.000000  -0.000000  -0.000000   0.000000
    13  C    0.000000  -0.000000  -0.000000   0.000000   0.000000  -0.000000
    14  H    0.000000   0.000000   0.000000  -0.000000  -0.000000   0.000000
    15  H    0.000000  -0.000000   0.000000  -0.000000  -0.000000   0.000000
    16  H    0.000000  -0.000001   0.000000  -0.000000  -0.000000   0.000000
    17  H    0.000000   0.000169  -0.000001   0.000000  -0.000000  -0.000000
    18  H    0.000000  -0.000000   0.000000  -0.000000  -0.000000   0.000000
    19  H   -0.000000   0.000000   0.000000  -0.000000  -0.000000  -0.000000
    20  H   -0.000000  -0.000000   0.000000  -0.000000   0.000000  -0.000000
    21  C    0.395800  -0.043759  -0.043777  -0.003785  -0.003794   0.004396
    22  C   -0.041880   0.398969   0.399066  -0.038965  -0.038960  -0.035780
    23  C   -0.002892  -0.039657  -0.039690   0.391367   0.391346   0.394148
    24  H   -0.031261  -0.002961   0.004563   0.000164   0.002628  -0.000059
    25  H    0.566499   0.004563  -0.002966   0.002629   0.000164  -0.000059
    26  H    0.004563   0.563992  -0.031722   0.004210  -0.002893  -0.002514
    27  H   -0.002966  -0.031722   0.563980  -0.002892   0.004213  -0.002514
    28  H    0.002629   0.004210  -0.002892   0.548454  -0.029119  -0.027451
    29  H    0.000164  -0.002893   0.004213  -0.029119   0.548558  -0.027459
    30  H   -0.000059  -0.002514  -0.002514  -0.027451  -0.027459   0.536602
    31  C   -0.041263  -0.003040  -0.002972  -0.000065  -0.000065  -0.000087
    32  C   -0.003394  -0.000072  -0.000073  -0.000001  -0.000001   0.000001
    33  C   -0.000052  -0.000000  -0.000000  -0.000000  -0.000000  -0.000000
    34  H    0.004390   0.002118   0.000185  -0.000002   0.000012   0.000001
    35  H   -0.002872   0.000208   0.002122   0.000013  -0.000002   0.000001
    36  H    0.000256   0.000017  -0.000003   0.000000  -0.000002   0.000000
    37  H    0.002426  -0.000003   0.000017  -0.000002   0.000000   0.000000
    38  H    0.000013   0.000000  -0.000002   0.000000  -0.000000  -0.000000
    39  H   -0.000002  -0.000002   0.000000  -0.000000   0.000000  -0.000000
    40  H    0.000001   0.000000   0.000000  -0.000000  -0.000000   0.000000
              31         32         33         34         35         36
     1  C   -0.001161   0.000047   0.000175  -0.000978  -0.000577  -0.000001
     2  C    0.000243   0.000033  -0.000848   0.000010  -0.000061  -0.000001
     3  C   -0.000273   0.000006   0.000012   0.000003  -0.000062  -0.000000
     4  H    0.000016  -0.000000  -0.000002   0.000024   0.000009   0.000000
     5  H   -0.000393  -0.000002   0.000058   0.000146   0.000278   0.000002
     6  H   -0.000003   0.000000   0.000012  -0.000001   0.000006   0.000000
     7  H    0.000175  -0.000092  -0.000221   0.000036  -0.000019   0.000001
     8  H   -0.000058  -0.000006   0.000003  -0.000014   0.001375   0.000000
     9  H    0.000004  -0.000000   0.000000  -0.000000  -0.000004   0.000000
    10  H    0.000004  -0.000000   0.000000   0.000000  -0.000002   0.000000
    11  C    0.000094   0.000007  -0.000295   0.000070   0.000012  -0.000000
    12  C   -0.000077   0.000001   0.000005   0.000025   0.000001   0.000000
    13  C    0.000001   0.000000  -0.000000  -0.000008   0.000000   0.000000
    14  H   -0.000001   0.000000   0.000004   0.000003  -0.000000  -0.000000
    15  H    0.000070  -0.000034  -0.000041   0.000195   0.000002   0.000000
    16  H    0.000001  -0.000000  -0.000000  -0.000003  -0.000000  -0.000000
    17  H   -0.000010  -0.000002   0.000001   0.000691  -0.000007  -0.000000
    18  H    0.000000  -0.000000  -0.000000   0.000001  -0.000000  -0.000000
    19  H   -0.000000   0.000000   0.000000   0.000000  -0.000000   0.000000
    20  H    0.000000   0.000000   0.000000  -0.000000   0.000000  -0.000000
    21  C    0.353860  -0.051559   0.004044  -0.041292  -0.041260  -0.003328
    22  C   -0.051895   0.003979  -0.000085  -0.003383  -0.003347  -0.000064
    23  C    0.004020  -0.000082   0.000001  -0.000040  -0.000040  -0.000001
    24  H   -0.041145  -0.003378  -0.000051  -0.002927   0.004368   0.002423
    25  H   -0.041263  -0.003394  -0.000052   0.004390  -0.002872   0.000256
    26  H   -0.003040  -0.000072  -0.000000   0.002118   0.000208   0.000017
    27  H   -0.002972  -0.000073  -0.000000   0.000185   0.002122  -0.000003
    28  H   -0.000065  -0.000001  -0.000000  -0.000002   0.000013   0.000000
    29  H   -0.000065  -0.000001  -0.000000   0.000012  -0.000002  -0.000002
    30  H   -0.000087   0.000001  -0.000000   0.000001   0.000001   0.000000
    31  C    5.093656   0.350441  -0.057324   0.397548   0.397377  -0.043310
    32  C    0.350441   5.061464   0.338925  -0.041398  -0.041301   0.398896
    33  C   -0.057324   0.338925   5.107501  -0.002831  -0.002810  -0.039794
    34  H    0.397548  -0.041398  -0.002831   0.563074  -0.033016  -0.003065
    35  H    0.397377  -0.041301  -0.002810  -0.033016   0.560621   0.004485
    36  H   -0.043310   0.398896  -0.039794  -0.003065   0.004485   0.563881
    37  H   -0.043331   0.398864  -0.039675   0.004502  -0.003023  -0.031325
    38  H   -0.003785  -0.038181   0.391660   0.000120   0.002263   0.004161
    39  H   -0.003749  -0.038604   0.391553   0.002287   0.000143  -0.002913
    40  H    0.004372  -0.035497   0.393031  -0.000051  -0.000051  -0.002569
              37         38         39         40
     1  C   -0.000001   0.000015  -0.000018  -0.000001
     2  C   -0.000001  -0.000735  -0.000104   0.000016
     3  C    0.000000   0.000144  -0.000001  -0.000000
     4  H    0.000000  -0.000000   0.000002   0.000000
     5  H    0.000000   0.000013  -0.000009  -0.000001
     6  H   -0.000000   0.000017   0.000001  -0.000000
     7  H    0.000004   0.000851   0.000248   0.000027
     8  H    0.000000   0.000054   0.000000  -0.000000
     9  H   -0.000000  -0.000002  -0.000000   0.000000
    10  H   -0.000000   0.000014  -0.000000  -0.000000
    11  C   -0.000000  -0.000009  -0.000099   0.000004
    12  C   -0.000000   0.000000  -0.000003  -0.000000
    13  C   -0.000000   0.000000  -0.000002   0.000000
    14  H    0.000000  -0.000000  -0.000001  -0.000000
    15  H    0.000001  -0.000005   0.001471  -0.000002
    16  H   -0.000000  -0.000000   0.000000   0.000000
    17  H    0.000000  -0.000000   0.000003  -0.000000
    18  H    0.000000  -0.000000   0.000007   0.000000
    19  H   -0.000000  -0.000000  -0.000000   0.000000
    20  H   -0.000000  -0.000000  -0.000000  -0.000000
    21  C   -0.003315  -0.000066  -0.000067  -0.000083
    22  C   -0.000065  -0.000000  -0.000000   0.000001
    23  C   -0.000001  -0.000000  -0.000000  -0.000000
    24  H    0.000256  -0.000002   0.000013   0.000001
    25  H    0.002426   0.000013  -0.000002   0.000001
    26  H   -0.000003   0.000000  -0.000002   0.000000
    27  H    0.000017  -0.000002   0.000000   0.000000
    28  H   -0.000002   0.000000  -0.000000  -0.000000
    29  H    0.000000  -0.000000   0.000000  -0.000000
    30  H    0.000000  -0.000000  -0.000000   0.000000
    31  C   -0.043331  -0.003785  -0.003749   0.004372
    32  C    0.398864  -0.038181  -0.038604  -0.035497
    33  C   -0.039675   0.391660   0.391553   0.393031
    34  H    0.004502   0.000120   0.002287  -0.000051
    35  H   -0.003023   0.002263   0.000143  -0.000051
    36  H   -0.031325   0.004161  -0.002913  -0.002569
    37  H    0.563628  -0.002996   0.004171  -0.002567
    38  H   -0.002996   0.544894  -0.030551  -0.027202
    39  H    0.004171  -0.030551   0.545345  -0.027109
    40  H   -0.002567  -0.027202  -0.027109   0.536340
 Mulliken charges:
               1
     1  C   -0.303810
     2  C   -0.306665
     3  C   -0.478423
     4  H    0.148446
     5  H    0.158202
     6  H    0.151427
     7  H    0.159630
     8  H    0.155420
     9  H    0.155522
    10  H    0.159629
    11  C   -0.302791
    12  C   -0.300647
    13  C   -0.475475
    14  H    0.149599
    15  H    0.152688
    16  H    0.152407
    17  H    0.151081
    18  H    0.154467
    19  H    0.155521
    20  H    0.160096
    21  C   -0.297712
    22  C   -0.300995
    23  C   -0.475669
    24  H    0.149934
    25  H    0.149899
    26  H    0.152164
    27  H    0.152204
    28  H    0.155445
    29  H    0.155373
    30  H    0.160775
    31  C   -0.307873
    32  C   -0.298988
    33  C   -0.482956
    34  H    0.153567
    35  H    0.155169
    36  H    0.152254
    37  H    0.152436
    38  H    0.159316
    39  H    0.157989
    40  H    0.161344
 Sum of Mulliken charges =  -0.00000
 Mulliken charges with hydrogens summed into heavy atoms:
               1
     1  C    0.002838
     2  C    0.004392
     3  C   -0.007852
    11  C   -0.000504
    12  C    0.002840
    13  C   -0.005390
    21  C    0.002120
    22  C    0.003374
    23  C   -0.004076
    31  C    0.000863
    32  C    0.005702
    33  C   -0.004307
 Electronic spatial extent (au):  <R**2>=           4209.7344
 Charge=             -0.0000 electrons
 Dipole moment (field-independent basis, Debye):
    X=              0.0728    Y=             -0.0079    Z=              0.0383  Tot=              0.0827
 Quadrupole moment (field-independent basis, Debye-Ang):
   XX=            -85.0819   YY=            -84.8324   ZZ=            -84.8953
   XY=             -0.4306   XZ=              1.0276   YZ=              0.0287
 Traceless Quadrupole moment (field-independent basis, Debye-Ang):
   XX=             -0.1454   YY=              0.1041   ZZ=              0.0413
   XY=             -0.4306   XZ=              1.0276   YZ=              0.0287
 Octapole moment (field-independent basis, Debye-Ang**2):
  XXX=             -6.8159  YYY=             -0.2009  ZZZ=              0.6968  XYY=              2.3029
  XXY=             -4.5655  XXZ=             -3.7546  XZZ=              0.1899  YZZ=              1.2324
  YYZ=              0.4915  XYZ=              2.1720
 Hexadecapole moment (field-independent basis, Debye-Ang**3):
 XXXX=          -3353.7806 YYYY=          -1498.3870 ZZZZ=          -1100.4567 XXXY=            -15.8923
 XXXZ=             20.1607 YYYX=              1.1457 YYYZ=             -4.2425 ZZZX=              6.6607
 ZZZY=            -10.2160 XXYY=           -816.6038 XXZZ=           -745.8553 YYZZ=           -441.4667
 XXYZ=              2.7616 YYXZ=              9.2839 ZZXY=              3.4340
 N-N= 7.326162653074D+02 E-N=-2.558358175689D+03  KE= 4.702371624031D+02
 Leave Link  601 at Wed May  5 15:08:04 2021, MaxMem=   524288000 cpu:               0.5 elap:               0.5
 (Enter /opt/gaussian/g16_legacy/l9999.exe)
 1\1\GINC-TRUENO91\SP\RMP2-FC\6-31G(d)\C12H28\JRAMOS\05-May-2021\0\\#p 
 6-31g* mp2\\Input file generated by CHIRIPA (05-May-2021 14:51:09)\\0,
 1\C,0,-0.666,-0.374,0.\C,0,-1.882,0.553,0.\C,0,-3.207,-0.21,0.\H,0,-0.
 713,-1.03,-0.88\H,0,-0.713,-1.029,0.881\H,0,-1.832,1.207,-0.88\H,0,-1.
 832,1.207,0.88\H,0,-3.283,-0.85,0.885\H,0,-3.283,-0.85,-0.885\H,0,-4.0
 63,0.472,0.\C,0,0.666,0.374,0.\C,0,1.882,-0.553,0.\C,0,3.207,0.21,0.\H
 ,0,0.713,1.029,-0.881\H,0,0.713,1.03,0.88\H,0,1.832,-1.207,-0.88\H,0,1
 .832,-1.207,0.88\H,0,3.283,0.85,0.885\H,0,3.283,0.85,-0.885\H,0,4.063,
 -0.472,0.\C,0,-1.020917,-2.161206,4.698873\C,0,-0.951573,-3.431608,3.8
 50784\C,0,-0.940681,-4.706226,4.695193\H,0,-0.16443,-2.139852,5.386564
 \H,0,-1.92347,-2.195283,5.324678\H,0,-0.050144,-3.394508,3.225753\H,0,
 -1.808221,-3.449846,3.164899\H,0,-1.845835,-4.770286,5.307723\H,0,-0.0
 77769,-4.714634,5.368923\H,0,-0.890793,-5.602343,4.068818\C,0,-1.03256
 1,-0.878678,3.868985\C,0,-1.101904,0.391725,4.717074\C,0,-1.112796,1.6
 66342,3.872665\H,0,-0.130008,-0.844601,3.24318\H,0,-1.889047,-0.900032
 ,3.181293\H,0,-0.245257,0.409962,5.402959\H,0,-2.003334,0.354624,5.342
 105\H,0,-1.975709,1.67475,3.198935\H,0,-0.207643,1.730403,3.260134\H,0
 ,-1.162684,2.562459,4.49904\\Version=EM64L-G16RevA.03\State=1-A\HF=-47
 0.7317167\MP2=-472.3180615\RMSD=2.207e-09\PG=C01 [X(C12H28)]\\@


 Experience is what you get when you don't get what you want.
 -- Dan Stanford
 Job cpu time:       0 days  0 hours  2 minutes 37.1 seconds.
 Elapsed time:       0 days  0 hours  1 minutes 26.9 seconds.
 File lengths (MBytes):  RWF=     26 Int=      0 D2E=      0 Chk=      5 Scr=      1
 Normal termination of Gaussian 16 at Wed May  5 15:08:04 2021.
