 Entering Gaussian System, Link 0=/opt/gaussian/g16_legacy/g16
 Input=gaussian_00155_1_1.com
 Output=gaussian_00155_1_1.log
 Initial command:
 /opt/gaussian/g16_legacy/l1.exe "/scratch-local/jramos/2594649/Gau-26074.inp" -scrdir="/scratch-local/jramos/2594649/"
 Entering Link 1 = /opt/gaussian/g16_legacy/l1.exe PID=     26076.
  
 Copyright (c) 1988,1990,1992,1993,1995,1998,2003,2009,2016,
            Gaussian, Inc.  All Rights Reserved.
  
 This is part of the Gaussian(R) 16 program.  It is based on
 the Gaussian(R) 09 system (copyright 2009, Gaussian, Inc.),
 the Gaussian(R) 03 system (copyright 2003, Gaussian, Inc.),
 the Gaussian(R) 98 system (copyright 1998, Gaussian, Inc.),
 the Gaussian(R) 94 system (copyright 1995, Gaussian, Inc.),
 the Gaussian 92(TM) system (copyright 1992, Gaussian, Inc.),
 the Gaussian 90(TM) system (copyright 1990, Gaussian, Inc.),
 the Gaussian 88(TM) system (copyright 1988, Gaussian, Inc.),
 the Gaussian 86(TM) system (copyright 1986, Carnegie Mellon
 University), and the Gaussian 82(TM) system (copyright 1983,
 Carnegie Mellon University). Gaussian is a federally registered
 trademark of Gaussian, Inc.
  
 This software contains proprietary and confidential information,
 including trade secrets, belonging to Gaussian, Inc.
  
 This software is provided under written license and may be
 used, copied, transmitted, or stored only in accord with that
 written license.
  
 The following legend is applicable only to US Government
 contracts under FAR:
  
                    RESTRICTED RIGHTS LEGEND
  
 Use, reproduction and disclosure by the US Government is
 subject to restrictions as set forth in subparagraphs (a)
 and (c) of the Commercial Computer Software - Restricted
 Rights clause in FAR 52.227-19.
  
 Gaussian, Inc.
 340 Quinnipiac St., Bldg. 40, Wallingford CT 06492
  
  
 ---------------------------------------------------------------
 Warning -- This program may not be used in any manner that
 competes with the business of Gaussian, Inc. or will provide
 assistance to any competitor of Gaussian, Inc.  The licensee
 of this program is prohibited from giving any competitor of
 Gaussian, Inc. access to this program.  By using this program,
 the user acknowledges that Gaussian, Inc. is engaged in the
 business of creating and licensing software in the field of
 computational chemistry and represents and warrants to the
 licensee that it is not a competitor of Gaussian, Inc. and that
 it will not use this program in any manner prohibited above.
 ---------------------------------------------------------------
  

 Cite this work as:
 Gaussian 16, Revision A.03,
 M. J. Frisch, G. W. Trucks, H. B. Schlegel, G. E. Scuseria, 
 M. A. Robb, J. R. Cheeseman, G. Scalmani, V. Barone, 
 G. A. Petersson, H. Nakatsuji, X. Li, M. Caricato, A. V. Marenich, 
 J. Bloino, B. G. Janesko, R. Gomperts, B. Mennucci, H. P. Hratchian, 
 J. V. Ortiz, A. F. Izmaylov, J. L. Sonnenberg, D. Williams-Young, 
 F. Ding, F. Lipparini, F. Egidi, J. Goings, B. Peng, A. Petrone, 
 T. Henderson, D. Ranasinghe, V. G. Zakrzewski, J. Gao, N. Rega, 
 G. Zheng, W. Liang, M. Hada, M. Ehara, K. Toyota, R. Fukuda, 
 J. Hasegawa, M. Ishida, T. Nakajima, Y. Honda, O. Kitao, H. Nakai, 
 T. Vreven, K. Throssell, J. A. Montgomery, Jr., J. E. Peralta, 
 F. Ogliaro, M. J. Bearpark, J. J. Heyd, E. N. Brothers, K. N. Kudin, 
 V. N. Staroverov, T. A. Keith, R. Kobayashi, J. Normand, 
 K. Raghavachari, A. P. Rendell, J. C. Burant, S. S. Iyengar, 
 J. Tomasi, M. Cossi, J. M. Millam, M. Klene, C. Adamo, R. Cammi, 
 J. W. Ochterski, R. L. Martin, K. Morokuma, O. Farkas, 
 J. B. Foresman, and D. J. Fox, Gaussian, Inc., Wallingford CT, 2016.
 
 ******************************************
 Gaussian 16:  EM64L-G16RevA.03 25-Dec-2016
                 6-May-2021 
 ******************************************
 %chk=gaussian_00155_1_1.chk
 %nproc=2
 Will use up to    2 processors via shared memory.
 %mem=4000Mb
 -------------
 #p 6-31g* mp2
 -------------
 1/38=1,172=1/1;
 2/12=2,17=6,18=5,40=1/2;
 3/5=1,6=6,7=1,11=9,25=1,30=1/1,2,3;
 4//1;
 5/5=2,38=5/2;
 8/10=2/1;
 9/16=-3/6;
 6/7=2,8=2,9=2,10=2/1;
 99/5=1,9=1/99;
 Leave Link    1 at Thu May  6 06:49:05 2021, MaxMem=   524288000 cpu:               0.1 elap:               0.3
 (Enter /opt/gaussian/g16_legacy/l101.exe)
 ------------------------------------------------------
 Input file generated by CHIRIPA (05-May-2021 14:51:07)
 ------------------------------------------------------
 Symbolic Z-matrix:
 Charge =  0 Multiplicity = 1
 C                    -0.666    -0.374     0. 
 C                    -1.882     0.553     0. 
 C                    -3.207    -0.21      0. 
 H                    -0.713    -1.03     -0.88 
 H                    -0.713    -1.029     0.881 
 H                    -1.832     1.207    -0.88 
 H                    -1.832     1.207     0.88 
 H                    -3.283    -0.85      0.885 
 H                    -3.283    -0.85     -0.885 
 H                    -4.063     0.472     0. 
 C                     0.666     0.374     0. 
 C                     1.882    -0.553     0. 
 C                     3.207     0.21      0. 
 H                     0.713     1.029    -0.881 
 H                     0.713     1.03      0.88 
 H                     1.832    -1.207    -0.88 
 H                     1.832    -1.207     0.88 
 H                     3.283     0.85      0.885 
 H                     3.283     0.85     -0.885 
 H                     4.063    -0.472     0. 
 C                    -1.97811  -6.58565   3.23822 
 C                    -2.73622  -7.84215   3.66768 
 C                    -2.0326   -8.60147   4.79292 
 H                    -0.96658  -6.86777   2.91548 
 H                    -1.85589  -5.92457   4.10738 
 H                    -2.85818  -8.50004   2.79766 
 H                    -3.74613  -7.55702   3.98925 
 H                    -1.92435  -7.96577   5.67766 
 H                    -1.03136  -8.91414   4.4793 
 H                    -2.59167  -9.49611   5.08432 
 C                    -2.66903  -5.81578   2.11409 
 C                    -1.91092  -4.55927   1.68463 
 C                    -2.61454  -3.79996   0.5594 
 H                    -2.79125  -6.47685   1.24494 
 H                    -3.68056  -5.53365   2.43683 
 H                    -0.90101  -4.8444    1.36306 
 H                    -1.78895  -3.90139   2.55465 
 H                    -3.61578  -3.48728   0.87301 
 H                    -2.72279  -4.43566  -0.32535 
 H                    -2.05547  -2.90532   0.26799 
 
 ITRead=  0  0  0  0  0  0  0  0  0  0  0  0  0  0  0  0  0  0  0  0
 ITRead=  0  0  0  0  0  0  0  0  0  0  0  0  0  0  0  0  0  0  0  0
 MicOpt= -1 -1 -1 -1 -1 -1 -1 -1 -1 -1 -1 -1 -1 -1 -1 -1 -1 -1 -1 -1
 MicOpt= -1 -1 -1 -1 -1 -1 -1 -1 -1 -1 -1 -1 -1 -1 -1 -1 -1 -1 -1 -1
 NAtoms=     40 NQM=       40 NQMF=       0 NMMI=      0 NMMIF=      0
                NMic=       0 NMicF=      0.
                    Isotopes and Nuclear Properties:
 (Nuclear quadrupole moments (NQMom) in fm**2, nuclear magnetic moments (NMagM)
  in nuclear magnetons)

  Atom         1           2           3           4           5           6           7           8           9          10
 IAtWgt=          12          12          12           1           1           1           1           1           1           1
 AtmWgt=  12.0000000  12.0000000  12.0000000   1.0078250   1.0078250   1.0078250   1.0078250   1.0078250   1.0078250   1.0078250
 NucSpn=           0           0           0           1           1           1           1           1           1           1
 AtZEff=  -0.0000000  -0.0000000  -0.0000000  -0.0000000  -0.0000000  -0.0000000  -0.0000000  -0.0000000  -0.0000000  -0.0000000
 NQMom=    0.0000000   0.0000000   0.0000000   0.0000000   0.0000000   0.0000000   0.0000000   0.0000000   0.0000000   0.0000000
 NMagM=    0.0000000   0.0000000   0.0000000   2.7928460   2.7928460   2.7928460   2.7928460   2.7928460   2.7928460   2.7928460
 AtZNuc=   6.0000000   6.0000000   6.0000000   1.0000000   1.0000000   1.0000000   1.0000000   1.0000000   1.0000000   1.0000000

  Atom        11          12          13          14          15          16          17          18          19          20
 IAtWgt=          12          12          12           1           1           1           1           1           1           1
 AtmWgt=  12.0000000  12.0000000  12.0000000   1.0078250   1.0078250   1.0078250   1.0078250   1.0078250   1.0078250   1.0078250
 NucSpn=           0           0           0           1           1           1           1           1           1           1
 AtZEff=  -0.0000000  -0.0000000  -0.0000000  -0.0000000  -0.0000000  -0.0000000  -0.0000000  -0.0000000  -0.0000000  -0.0000000
 NQMom=    0.0000000   0.0000000   0.0000000   0.0000000   0.0000000   0.0000000   0.0000000   0.0000000   0.0000000   0.0000000
 NMagM=    0.0000000   0.0000000   0.0000000   2.7928460   2.7928460   2.7928460   2.7928460   2.7928460   2.7928460   2.7928460
 AtZNuc=   6.0000000   6.0000000   6.0000000   1.0000000   1.0000000   1.0000000   1.0000000   1.0000000   1.0000000   1.0000000

  Atom        21          22          23          24          25          26          27          28          29          30
 IAtWgt=          12          12          12           1           1           1           1           1           1           1
 AtmWgt=  12.0000000  12.0000000  12.0000000   1.0078250   1.0078250   1.0078250   1.0078250   1.0078250   1.0078250   1.0078250
 NucSpn=           0           0           0           1           1           1           1           1           1           1
 AtZEff=  -0.0000000  -0.0000000  -0.0000000  -0.0000000  -0.0000000  -0.0000000  -0.0000000  -0.0000000  -0.0000000  -0.0000000
 NQMom=    0.0000000   0.0000000   0.0000000   0.0000000   0.0000000   0.0000000   0.0000000   0.0000000   0.0000000   0.0000000
 NMagM=    0.0000000   0.0000000   0.0000000   2.7928460   2.7928460   2.7928460   2.7928460   2.7928460   2.7928460   2.7928460
 AtZNuc=   6.0000000   6.0000000   6.0000000   1.0000000   1.0000000   1.0000000   1.0000000   1.0000000   1.0000000   1.0000000

  Atom        31          32          33          34          35          36          37          38          39          40
 IAtWgt=          12          12          12           1           1           1           1           1           1           1
 AtmWgt=  12.0000000  12.0000000  12.0000000   1.0078250   1.0078250   1.0078250   1.0078250   1.0078250   1.0078250   1.0078250
 NucSpn=           0           0           0           1           1           1           1           1           1           1
 AtZEff=  -0.0000000  -0.0000000  -0.0000000  -0.0000000  -0.0000000  -0.0000000  -0.0000000  -0.0000000  -0.0000000  -0.0000000
 NQMom=    0.0000000   0.0000000   0.0000000   0.0000000   0.0000000   0.0000000   0.0000000   0.0000000   0.0000000   0.0000000
 NMagM=    0.0000000   0.0000000   0.0000000   2.7928460   2.7928460   2.7928460   2.7928460   2.7928460   2.7928460   2.7928460
 AtZNuc=   6.0000000   6.0000000   6.0000000   1.0000000   1.0000000   1.0000000   1.0000000   1.0000000   1.0000000   1.0000000
 Leave Link  101 at Thu May  6 06:49:05 2021, MaxMem=   524288000 cpu:               0.3 elap:               0.2
 (Enter /opt/gaussian/g16_legacy/l202.exe)
                          Input orientation:                          
 ---------------------------------------------------------------------
 Center     Atomic      Atomic             Coordinates (Angstroms)
 Number     Number       Type             X           Y           Z
 ---------------------------------------------------------------------
      1          6           0       -0.666000   -0.374000    0.000000
      2          6           0       -1.882000    0.553000    0.000000
      3          6           0       -3.207000   -0.210000    0.000000
      4          1           0       -0.713000   -1.030000   -0.880000
      5          1           0       -0.713000   -1.029000    0.881000
      6          1           0       -1.832000    1.207000   -0.880000
      7          1           0       -1.832000    1.207000    0.880000
      8          1           0       -3.283000   -0.850000    0.885000
      9          1           0       -3.283000   -0.850000   -0.885000
     10          1           0       -4.063000    0.472000    0.000000
     11          6           0        0.666000    0.374000    0.000000
     12          6           0        1.882000   -0.553000    0.000000
     13          6           0        3.207000    0.210000    0.000000
     14          1           0        0.713000    1.029000   -0.881000
     15          1           0        0.713000    1.030000    0.880000
     16          1           0        1.832000   -1.207000   -0.880000
     17          1           0        1.832000   -1.207000    0.880000
     18          1           0        3.283000    0.850000    0.885000
     19          1           0        3.283000    0.850000   -0.885000
     20          1           0        4.063000   -0.472000    0.000000
     21          6           0       -1.978107   -6.585646    3.238219
     22          6           0       -2.736222   -7.842154    3.667680
     23          6           0       -2.032599   -8.601466    4.792915
     24          1           0       -0.966579   -6.867775    2.915482
     25          1           0       -1.855889   -5.924570    4.107378
     26          1           0       -2.858184   -8.500037    2.797662
     27          1           0       -3.746127   -7.557024    3.989251
     28          1           0       -1.924347   -7.965768    5.677658
     29          1           0       -1.031359   -8.914139    4.479299
     30          1           0       -2.591670   -9.496107    5.084319
     31          6           0       -2.669029   -5.815777    2.114094
     32          6           0       -1.910915   -4.559269    1.684634
     33          6           0       -2.614538   -3.799957    0.559399
     34          1           0       -2.791247   -6.476853    1.244936
     35          1           0       -3.680557   -5.533649    2.436831
     36          1           0       -0.901009   -4.844399    1.363063
     37          1           0       -1.788952   -3.901387    2.554652
     38          1           0       -3.615778   -3.487285    0.873014
     39          1           0       -2.722790   -4.435655   -0.325345
     40          1           0       -2.055466   -2.905317    0.267994
 ---------------------------------------------------------------------
                    Distance matrix (angstroms):
                    1          2          3          4          5
     1  C    0.000000
     2  C    1.529047   0.000000
     3  C    2.546287   1.528985   0.000000
     4  H    1.098610   2.155655   2.768905   0.000000
     5  H    1.098815   2.155330   2.768927   1.761000   0.000000
     6  H    2.152561   1.097550   2.161692   2.501266   3.058264
     7  H    2.152561   1.097550   2.161692   3.058420   2.500372
     8  H    2.803300   2.171275   1.094806   3.122903   2.576229
     9  H    2.803300   2.171275   1.094806   2.576301   3.123411
    10  H    3.500761   2.182504   1.094468   3.775302   3.775137
    11  C    1.527654   2.554280   3.916782   2.155750   2.155507
    12  C    2.554280   3.923128   5.100546   2.781358   2.781504
    13  C    3.916782   5.100546   6.427736   4.204569   4.204484
    14  H    2.155507   2.781504   4.204484   2.504587   3.061615
    15  H    2.155750   2.781358   4.204569   3.061809   2.504587
    16  H    2.776381   4.203070   5.211519   2.551148   3.099973
    17  H    2.776381   4.203070   5.211519   3.099347   2.551217
    18  H    4.228002   5.248682   6.635279   4.755801   4.415730
    19  H    4.228002   5.248682   6.635279   4.416157   4.755777
    20  H    4.730015   6.032715   7.274720   4.888347   4.888413
    21  C    7.126867   7.839360   7.255694   7.030322   6.167114
    22  C    8.573857   9.201097   8.480760   8.436840   7.634008
    23  C    9.619294  10.334358   9.734883   9.552508   8.624770
    24  H    7.124570   8.025331   7.605622   6.967755   6.188272
    25  H    7.006798   7.670081   7.166056   7.080745   5.973468
    26  H    8.869333   9.525614   8.756329   8.598166   8.005736
    27  H    8.774801   9.228303   8.377562   8.689736   7.840675
    28  H    9.563168  10.237529   9.697058   9.621596   8.520214
    29  H    9.650470  10.507827  10.027939   9.538505   8.673207
    30  H   10.619385  11.284435  10.604750  10.525088   9.637904
    31  C    6.172071   6.756488   6.015276   5.974472   5.315995
    32  C    4.680201   5.382762   4.840864   4.524167   3.813611
    33  C    3.980818   4.449469   3.681267   3.655185   3.376015
    34  H    6.581136   7.196904   6.402825   6.205052   5.842145
    35  H    6.453501   6.798548   5.873980   6.331715   5.614167
    36  H    4.679491   5.652628   5.352867   4.429031   3.850325
    37  H    4.497747   5.135803   4.707807   4.604277   3.494194
    38  H    4.376744   4.482415   3.416116   4.187771   3.803860
    39  H    4.564348   5.069463   4.265732   3.993167   4.135193
    40  H    2.900000   3.473020   2.943227   2.576222   2.387165
                    6          7          8          9         10
     6  H    0.000000
     7  H    1.760000   0.000000
     8  H    3.074390   2.517275   0.000000
     9  H    2.517275   3.074390   1.770000   0.000000
    10  H    2.508383   2.508383   1.771810   1.771810   0.000000
    11  C    2.776381   2.776381   4.228002   4.228002   4.730015
    12  C    4.203070   4.203070   5.248682   5.248682   6.032715
    13  C    5.211519   5.211519   6.635279   6.635279   7.274720
    14  H    2.551217   3.099973   4.755777   4.415730   4.888413
    15  H    3.099347   2.551148   4.416157   4.755801   4.888347
    16  H    4.387743   4.727567   5.422721   5.127446   6.192291
    17  H    4.727567   4.387743   5.127446   5.422721   6.192291
    18  H    5.422721   5.127446   6.782504   7.009654   7.408767
    19  H    5.127446   5.422721   7.009654   6.782504   7.408767
    20  H    6.192291   6.192291   7.408767   7.408767   8.180649
    21  C    8.815124   8.142965   6.335457   7.183406   8.040100
    22  C   10.167900   9.511885   7.545362   8.361584   9.183538
    23  C   11.332617  10.562062   8.770435   9.689553  10.460514
    24  H    8.964186   8.372224   6.760346   7.484857   8.482933
    25  H    8.702517   7.827888   6.178319   7.260285   7.915681
    26  H   10.430955   9.947716   7.896949   8.500914   9.475017
    27  H   10.206939   9.494179   7.405068   8.304034   8.971051
    28  H   11.276129  10.352088   8.686177   9.774895  10.392573
    29  H   11.480443  10.771882   9.111488   9.943638  10.833032
    30  H   12.276266  11.524318   9.636772  10.529286  11.286198
    31  C    7.680144   7.179346   5.152337   5.833564   6.778546
    32  C    6.311373   5.822673   4.034936   4.716388   5.725655
    33  C    5.268193   5.077871   3.042220   3.351921   4.545392
    34  H    8.029764   7.752092   5.659757   6.036549   7.173129
    35  H    7.736594   7.160812   4.950030   5.755795   6.492475
    36  H    6.520545   6.141622   4.675216   5.165549   6.334053
    37  H    6.155835   5.376052   3.785615   4.834702   5.551942
    38  H    5.318950   5.021775   2.658224   3.186946   4.078983
    39  H    5.739399   5.838315   3.825662   3.672053   5.097753
    40  H    4.275392   4.163609   2.472218   2.657172   3.938056
                   11         12         13         14         15
    11  C    0.000000
    12  C    1.529047   0.000000
    13  C    2.546287   1.528985   0.000000
    14  H    1.098815   2.155330   2.768927   0.000000
    15  H    1.098610   2.155655   2.768905   1.761000   0.000000
    16  H    2.152561   1.097550   2.161692   2.500372   3.058420
    17  H    2.152561   1.097550   2.161692   3.058264   2.501266
    18  H    2.803300   2.171275   1.094806   3.123411   2.576301
    19  H    2.803300   2.171275   1.094806   2.576229   3.122903
    20  H    3.500761   2.182504   1.094468   3.775137   3.775302
    21  C    8.118746   7.859981   9.140689   9.066028   8.414352
    22  C    9.619365   9.376120  10.658844  10.549170   9.918841
    23  C   10.526797  10.152533  11.316685  11.509887  10.752412
    24  H    7.975503   7.516038   8.718583   8.921509   8.327006
    25  H    7.931107   7.726327   8.951891   8.935057   8.085864
    26  H    9.949639   9.667040  10.976252  10.820742  10.356273
    27  H    9.913734   9.830884  11.161844  10.831573  10.163082
    28  H   10.416210  10.083313  11.198647  11.440168  10.530763
    29  H   10.450582   9.922723  11.012616  11.429856  10.718379
    30  H   11.570727  11.217985  12.396910  12.541282  11.806611
    31  C    7.342013   7.271732   8.677966   8.201200   7.734712
    32  C    5.815120   5.768396   7.195622   6.685519   6.226740
    33  C    5.338237   5.574452   7.091050   6.038715   5.873992
    34  H    7.774099   7.647296   9.068784   8.552028   8.292513
    35  H    7.728585   7.854110   9.293336   8.566196   8.050376
    36  H    5.616507   5.293315   6.654369   6.491353   6.111214
    37  H    5.552654   5.586934   6.956241   6.509392   5.777785
    38  H    5.831406   6.292674   7.809121   6.497054   6.256535
    39  H    5.892582   6.031994   7.539918   6.478878   6.567412
    40  H    4.269908   4.594437   6.121321   4.946053   4.850327
                   16         17         18         19         20
    16  H    0.000000
    17  H    1.760000   0.000000
    18  H    3.074390   2.517275   0.000000
    19  H    2.517275   3.074390   1.770000   0.000000
    20  H    2.508383   2.508383   1.771810   1.771810   0.000000
    21  C    7.772160   7.000567   9.407748   9.998451   9.184645
    22  C    9.250693   8.524382  10.932881  11.511363  10.677100
    23  C   10.089362   9.215430  11.526387  12.240283  11.234615
    24  H    7.367639   6.634727   9.041340   9.595136   8.643069
    25  H    7.792941   6.802350   9.093223   9.860366   9.035171
    26  H    9.418674   8.880520  11.348815  11.777068  10.962622
    27  H    9.754379   9.005873  11.389603  11.993540  11.273604
    28  H   10.138736   9.099924  11.305034  12.161526  11.146330
    29  H    9.814321   8.975175  11.263707  11.946874  10.829881
    30  H   11.128848  10.293418  12.616971  13.311140  12.311354
    31  C    7.103850   6.559198   9.020527   9.426229   8.851303
    32  C    5.641318   5.088669   7.541642   7.927166   7.431784
    33  C    5.344810   5.157316   7.517252   7.647833   7.481827
    34  H    7.325375   7.019896   9.524117   9.752737   9.197218
    35  H    7.753035   7.178572   9.573415  10.013824   9.566667
    36  H    5.072607   4.575299   7.082419   7.415248   6.754051
    37  H    5.671671   4.814091   7.147595   7.754456   7.247916
    38  H    6.160442   5.905763   8.148946   8.336414   8.295645
    39  H    5.610523   5.711671   8.091514   8.020030   7.865326
    40  H    4.394834   4.286167   6.556090   6.628048   6.590029
                   21         22         23         24         25
    21  C    0.000000
    22  C    1.529048   0.000000
    23  C    2.546287   1.528985   0.000000
    24  H    1.098610   2.155656   2.768906   0.000000
    25  H    1.098816   2.155330   2.768928   1.761001   0.000000
    26  H    2.152561   1.097550   2.161692   2.501266   3.058264
    27  H    2.152561   1.097550   2.161692   3.058420   2.500372
    28  H    2.803300   2.171275   1.094806   3.122903   2.576229
    29  H    2.803300   2.171275   1.094806   2.576301   3.123411
    30  H    3.500761   2.182504   1.094468   3.775302   3.775138
    31  C    1.527655   2.554280   3.916783   2.155750   2.155508
    32  C    2.554280   3.923128   5.100546   2.781359   2.781504
    33  C    3.916782   5.100546   6.427737   4.204569   4.204484
    34  H    2.155507   2.781504   4.204484   2.504587   3.061615
    35  H    2.155750   2.781358   4.204569   3.061809   2.504588
    36  H    2.776381   4.203070   5.211519   2.551148   3.099973
    37  H    2.776381   4.203070   5.211519   3.099347   2.551217
    38  H    4.228002   5.248682   6.635279   4.755801   4.415731
    39  H    4.228002   5.248682   6.635279   4.416157   4.755777
    40  H    4.730015   6.032715   7.274720   4.888347   4.888414
                   26         27         28         29         30
    26  H    0.000000
    27  H    1.760000   0.000000
    28  H    3.074390   2.517275   0.000000
    29  H    2.517275   3.074390   1.770000   0.000000
    30  H    2.508383   2.508383   1.771809   1.771809   0.000000
    31  C    2.776382   2.776382   4.228002   4.228002   4.730016
    32  C    4.203071   4.203070   5.248681   5.248682   6.032715
    33  C    5.211520   5.211519   6.635278   6.635279   7.274720
    34  H    2.551218   3.099973   4.755776   4.415730   4.888414
    35  H    3.099347   2.551148   4.416156   4.755800   4.888347
    36  H    4.387744   4.727567   5.422720   5.127446   6.192291
    37  H    4.727567   4.387743   5.127445   5.422720   6.192291
    38  H    5.422721   5.127446   6.782503   7.009655   7.408767
    39  H    5.127446   5.422721   7.009654   6.782504   7.408767
    40  H    6.192291   6.192291   7.408767   7.408767   8.180649
                   31         32         33         34         35
    31  C    0.000000
    32  C    1.529047   0.000000
    33  C    2.546287   1.528985   0.000000
    34  H    1.098815   2.155330   2.768927   0.000000
    35  H    1.098610   2.155655   2.768905   1.761000   0.000000
    36  H    2.152561   1.097551   2.161693   2.500372   3.058420
    37  H    2.152560   1.097550   2.161693   3.058264   2.501266
    38  H    2.803300   2.171275   1.094806   3.123411   2.576301
    39  H    2.803300   2.171275   1.094807   2.576229   3.122903
    40  H    3.500760   2.182503   1.094467   3.775137   3.775302
                   36         37         38         39         40
    36  H    0.000000
    37  H    1.760000   0.000000
    38  H    3.074391   2.517276   0.000000
    39  H    2.517276   3.074391   1.769999   0.000000
    40  H    2.508383   2.508384   1.771810   1.771809   0.000000
 Stoichiometry    C12H28
 Framework group  C1[X(C12H28)]
 Deg. of freedom   114
 Full point group                 C1      NOp   1
 Largest Abelian subgroup         C1      NOp   1
 Largest concise Abelian subgroup C1      NOp   1
                         Standard orientation:                         
 ---------------------------------------------------------------------
 Center     Atomic      Atomic             Coordinates (Angstroms)
 Number     Number       Type             X           Y           Z
 ---------------------------------------------------------------------
      1          6           0        3.033397   -0.516864   -0.025050
      2          6           0        3.428833   -1.893506   -0.560280
      3          6           0        2.348337   -2.950339   -0.329136
      4          1           0        2.819710   -0.595872    1.049679
      5          1           0        2.098669   -0.198433   -0.507005
      6          1           0        4.363272   -2.208636   -0.078478
      7          1           0        3.641789   -1.811173   -1.633819
      8          1           0        1.415342   -2.662060   -0.824126
      9          1           0        2.140924   -3.061781    0.740052
     10          1           0        2.651798   -3.926782   -0.719431
     11          6           0        4.103379    0.550309   -0.248674
     12          6           0        3.707943    1.926952    0.286556
     13          6           0        4.788438    2.983785    0.055412
     14          1           0        5.038106    0.231879    0.233282
     15          1           0        4.317066    0.629318   -1.323402
     16          1           0        3.494987    1.844619    1.360095
     17          1           0        2.773504    2.242082   -0.195245
     18          1           0        4.995851    3.095226   -1.013775
     19          1           0        5.721434    2.695505    0.550403
     20          1           0        4.484977    3.960228    0.445708
     21          6           0       -4.014770    0.531698   -0.151947
     22          6           0       -5.507959    0.228961   -0.022629
     23          6           0       -6.388057    1.335371   -0.604933
     24          1           0       -3.794595    1.481741    0.353905
     25          1           0       -3.767895    0.677810   -1.212654
     26          1           0       -5.751677    0.082097    1.037394
     27          1           0       -5.724571   -0.720568   -0.528683
     28          1           0       -6.173736    1.478197   -1.669014
     29          1           0       -6.200996    2.285422   -0.094039
     30          1           0       -7.451585    1.098413   -0.501891
     31          6           0       -3.122005   -0.565143    0.425671
     32          6           0       -1.628817   -0.262407    0.296352
     33          6           0       -0.748719   -1.368817    0.878656
     34          1           0       -3.368881   -0.711255    1.486377
     35          1           0       -3.342181   -1.515186   -0.080180
     36          1           0       -1.412204    0.687123    0.802406
     37          1           0       -1.385099   -0.115541   -0.763670
     38          1           0       -0.935780   -2.318868    0.367764
     39          1           0       -0.963039   -1.511643    1.942738
     40          1           0        0.314809   -1.131858    0.775616
 ---------------------------------------------------------------------
 Rotational constants (GHZ):           0.9829887           0.1892700           0.1637665
 Leave Link  202 at Thu May  6 06:49:05 2021, MaxMem=   524288000 cpu:               0.1 elap:               0.1
 (Enter /opt/gaussian/g16_legacy/l301.exe)
 Standard basis: 6-31G(d) (6D, 7F)
 Ernie: Thresh=  0.10000D-02 Tol=  0.10000D-05 Strict=F.
 There are   236 symmetry adapted cartesian basis functions of A   symmetry.
 There are   236 symmetry adapted basis functions of A   symmetry.
   236 basis functions,   448 primitive gaussians,   236 cartesian basis functions
    50 alpha electrons       50 beta electrons
       nuclear repulsion energy       680.0372117230 Hartrees.
 IExCor=    0 DFT=F Ex=HF Corr=None ExCW=0 ScaHFX=  1.000000
 ScaDFX=  1.000000  1.000000  1.000000  1.000000 ScalE2=  1.000000  1.000000
 IRadAn=      5 IRanWt=     -1 IRanGd=            0 ICorTp=0 IEmpDi=  4
 NAtoms=   40 NActive=   40 NUniq=   40 SFac= 1.00D+00 NAtFMM=   60 NAOKFM=F Big=F
 Integral buffers will be    131072 words long.
 Raffenetti 1 integral format.
 Two-electron integral symmetry is turned on.
 Leave Link  301 at Thu May  6 06:49:06 2021, MaxMem=   524288000 cpu:               0.3 elap:               0.2
 (Enter /opt/gaussian/g16_legacy/l302.exe)
 NPDir=0 NMtPBC=     1 NCelOv=     1 NCel=       1 NClECP=     1 NCelD=      1
         NCelK=      1 NCelE2=     1 NClLst=     1 CellRange=     0.0.
 One-electron integrals computed using PRISM.
 One-electron integral symmetry used in STVInt
 NBasis=   236 RedAO= T EigKep=  3.16D-03  NBF=   236
 NBsUse=   236 1.00D-06 EigRej= -1.00D+00 NBFU=   236
 Leave Link  302 at Thu May  6 06:49:06 2021, MaxMem=   524288000 cpu:               0.7 elap:               0.5
 (Enter /opt/gaussian/g16_legacy/l303.exe)
 DipDrv:  MaxL=1.
 Leave Link  303 at Thu May  6 06:49:06 2021, MaxMem=   524288000 cpu:               0.1 elap:               0.1
 (Enter /opt/gaussian/g16_legacy/l401.exe)
 ExpMin= 1.61D-01 ExpMax= 3.05D+03 ExpMxC= 4.57D+02 IAcc=3 IRadAn=         5 AccDes= 0.00D+00
 Harris functional with IExCor=  205 and IRadAn=       5 diagonalized for initial guess.
 HarFok:  IExCor=  205 AccDes= 0.00D+00 IRadAn=         5 IDoV= 1 UseB2=F ITyADJ=14
 ICtDFT=  3500011 ScaDFX=  1.000000  1.000000  1.000000  1.000000
 FoFCou: FMM=F IPFlag=           0 FMFlag=      100000 FMFlg1=           0
         NFxFlg=           0 DoJE=T BraDBF=F KetDBF=T FulRan=T
         wScrn=  0.000000 ICntrl=       500 IOpCl=  0 I1Cent=   200000004 NGrid=           0
         NMat0=    1 NMatS0=      1 NMatT0=    0 NMatD0=    1 NMtDS0=    0 NMtDT0=    0
 Petite list used in FoFCou.
 Harris En= -472.098565287092    
 JPrj=0 DoOrth=F DoCkMO=F.
 Leave Link  401 at Thu May  6 06:49:15 2021, MaxMem=   524288000 cpu:              15.6 elap:               8.5
 (Enter /opt/gaussian/g16_legacy/l502.exe)
 Keep R1 ints in memory in canonical form, NReq=397720540.
 FoFCou: FMM=F IPFlag=           0 FMFlag=           0 FMFlg1=           0
         NFxFlg=           0 DoJE=F BraDBF=F KetDBF=F FulRan=T
         wScrn=  0.000000 ICntrl=       600 IOpCl=  0 I1Cent=           0 NGrid=           0
         NMat0=    1 NMatS0=  27966 NMatT0=    0 NMatD0=    1 NMtDS0=    0 NMtDT0=    0
 Symmetry not used in FoFCou.
 Two-electron integral symmetry not used.
 Closed shell SCF:
 Using DIIS extrapolation, IDIIS=  1040.
 NGot=   524288000 LenX=   133109463 LenY=   133053326
 Requested convergence on RMS density matrix=1.00D-08 within 128 cycles.
 Requested convergence on MAX density matrix=1.00D-06.
 Requested convergence on             energy=1.00D-06.
 No special actions if energy rises.

 Cycle   1  Pass 1  IDiag  1:
 E= -469.872968741158    
 DIIS: error= 5.67D-02 at cycle   1 NSaved=   1.
 NSaved= 1 IEnMin= 1 EnMin= -469.872968741158     IErMin= 1 ErrMin= 5.67D-02
 ErrMax= 5.67D-02  0.00D+00 EMaxC= 1.00D-01 BMatC= 1.06D+00 BMatP= 1.06D+00
 IDIUse=3 WtCom= 4.33D-01 WtEn= 5.67D-01
 Coeff-Com:  0.100D+01
 Coeff-En:   0.100D+01
 Coeff:      0.100D+01
 Gap=     0.644 Goal=   None    Shift=    0.000
 GapD=    0.644 DampG=2.000 DampE=0.500 DampFc=1.0000 IDamp=-1.
 RMSDP=4.71D-03 MaxDP=1.18D-01              OVMax= 1.34D-01

 Cycle   2  Pass 1  IDiag  1:
 E= -470.595644645414     Delta-E=       -0.722675904256 Rises=F Damp=F
 DIIS: error= 2.06D-02 at cycle   2 NSaved=   2.
 NSaved= 2 IEnMin= 2 EnMin= -470.595644645414     IErMin= 2 ErrMin= 2.06D-02
 ErrMax= 2.06D-02  0.00D+00 EMaxC= 1.00D-01 BMatC= 1.45D-01 BMatP= 1.06D+00
 IDIUse=3 WtCom= 7.94D-01 WtEn= 2.06D-01
 Coeff-Com:  0.218D+00 0.782D+00
 Coeff-En:   0.000D+00 0.100D+01
 Coeff:      0.173D+00 0.827D+00
 Gap=     0.684 Goal=   None    Shift=    0.000
 RMSDP=1.71D-03 MaxDP=3.32D-02 DE=-7.23D-01 OVMax= 4.71D-02

 Cycle   3  Pass 1  IDiag  1:
 E= -470.725546709948     Delta-E=       -0.129902064534 Rises=F Damp=F
 DIIS: error= 4.61D-03 at cycle   3 NSaved=   3.
 NSaved= 3 IEnMin= 3 EnMin= -470.725546709948     IErMin= 3 ErrMin= 4.61D-03
 ErrMax= 4.61D-03  0.00D+00 EMaxC= 1.00D-01 BMatC= 4.88D-03 BMatP= 1.45D-01
 IDIUse=3 WtCom= 9.54D-01 WtEn= 4.61D-02
 Coeff-Com: -0.262D-01 0.107D+00 0.920D+00
 Coeff-En:   0.000D+00 0.000D+00 0.100D+01
 Coeff:     -0.250D-01 0.102D+00 0.923D+00
 Gap=     0.654 Goal=   None    Shift=    0.000
 RMSDP=2.81D-04 MaxDP=7.09D-03 DE=-1.30D-01 OVMax= 9.63D-03

 Cycle   4  Pass 1  IDiag  1:
 E= -470.731085259593     Delta-E=       -0.005538549645 Rises=F Damp=F
 DIIS: error= 4.46D-04 at cycle   4 NSaved=   4.
 NSaved= 4 IEnMin= 4 EnMin= -470.731085259593     IErMin= 4 ErrMin= 4.46D-04
 ErrMax= 4.46D-04  0.00D+00 EMaxC= 1.00D-01 BMatC= 6.50D-05 BMatP= 4.88D-03
 IDIUse=3 WtCom= 9.96D-01 WtEn= 4.46D-03
 Coeff-Com:  0.128D-02-0.226D-01-0.894D-01 0.111D+01
 Coeff-En:   0.000D+00 0.000D+00 0.000D+00 0.100D+01
 Coeff:      0.128D-02-0.225D-01-0.890D-01 0.111D+01
 Gap=     0.655 Goal=   None    Shift=    0.000
 RMSDP=6.11D-05 MaxDP=9.40D-04 DE=-5.54D-03 OVMax= 1.81D-03

 Cycle   5  Pass 1  IDiag  1:
 E= -470.731193487460     Delta-E=       -0.000108227867 Rises=F Damp=F
 DIIS: error= 1.63D-04 at cycle   5 NSaved=   5.
 NSaved= 5 IEnMin= 5 EnMin= -470.731193487460     IErMin= 5 ErrMin= 1.63D-04
 ErrMax= 1.63D-04  0.00D+00 EMaxC= 1.00D-01 BMatC= 6.79D-06 BMatP= 6.50D-05
 IDIUse=3 WtCom= 9.98D-01 WtEn= 1.63D-03
 Coeff-Com:  0.223D-02-0.127D-01-0.848D-01 0.193D+00 0.902D+00
 Coeff-En:   0.000D+00 0.000D+00 0.000D+00 0.000D+00 0.100D+01
 Coeff:      0.222D-02-0.127D-01-0.846D-01 0.193D+00 0.902D+00
 Gap=     0.655 Goal=   None    Shift=    0.000
 RMSDP=1.62D-05 MaxDP=3.36D-04 DE=-1.08D-04 OVMax= 4.80D-04

 Cycle   6  Pass 1  IDiag  1:
 E= -470.731202957131     Delta-E=       -0.000009469672 Rises=F Damp=F
 DIIS: error= 1.96D-05 at cycle   6 NSaved=   6.
 NSaved= 6 IEnMin= 6 EnMin= -470.731202957131     IErMin= 6 ErrMin= 1.96D-05
 ErrMax= 1.96D-05  0.00D+00 EMaxC= 1.00D-01 BMatC= 1.40D-07 BMatP= 6.79D-06
 IDIUse=1 WtCom= 1.00D+00 WtEn= 0.00D+00
 Coeff-Com:  0.126D-03-0.218D-03-0.280D-02-0.325D-01 0.554D-01 0.980D+00
 Coeff:      0.126D-03-0.218D-03-0.280D-02-0.325D-01 0.554D-01 0.980D+00
 Gap=     0.655 Goal=   None    Shift=    0.000
 RMSDP=3.41D-06 MaxDP=5.64D-05 DE=-9.47D-06 OVMax= 9.91D-05

 Cycle   7  Pass 1  IDiag  1:
 E= -470.731203199650     Delta-E=       -0.000000242518 Rises=F Damp=F
 DIIS: error= 3.58D-06 at cycle   7 NSaved=   7.
 NSaved= 7 IEnMin= 7 EnMin= -470.731203199650     IErMin= 7 ErrMin= 3.58D-06
 ErrMax= 3.58D-06  0.00D+00 EMaxC= 1.00D-01 BMatC= 5.53D-09 BMatP= 1.40D-07
 IDIUse=1 WtCom= 1.00D+00 WtEn= 0.00D+00
 Coeff-Com: -0.541D-04 0.348D-03 0.239D-02-0.733D-02-0.240D-01 0.298D-01
 Coeff-Com:  0.999D+00
 Coeff:     -0.541D-04 0.348D-03 0.239D-02-0.733D-02-0.240D-01 0.298D-01
 Coeff:      0.999D+00
 Gap=     0.655 Goal=   None    Shift=    0.000
 RMSDP=7.17D-07 MaxDP=1.17D-05 DE=-2.43D-07 OVMax= 2.12D-05

 Cycle   8  Pass 1  IDiag  1:
 E= -470.731203209171     Delta-E=       -0.000000009521 Rises=F Damp=F
 DIIS: error= 1.88D-06 at cycle   8 NSaved=   8.
 NSaved= 8 IEnMin= 8 EnMin= -470.731203209171     IErMin= 8 ErrMin= 1.88D-06
 ErrMax= 1.88D-06  0.00D+00 EMaxC= 1.00D-01 BMatC= 6.22D-10 BMatP= 5.53D-09
 IDIUse=1 WtCom= 1.00D+00 WtEn= 0.00D+00
 Coeff-Com: -0.156D-04 0.606D-04 0.527D-03 0.142D-02-0.696D-02-0.694D-01
 Coeff-Com:  0.142D+00 0.932D+00
 Coeff:     -0.156D-04 0.606D-04 0.527D-03 0.142D-02-0.696D-02-0.694D-01
 Coeff:      0.142D+00 0.932D+00
 Gap=     0.655 Goal=   None    Shift=    0.000
 RMSDP=2.03D-07 MaxDP=4.39D-06 DE=-9.52D-09 OVMax= 7.27D-06

 Cycle   9  Pass 1  IDiag  1:
 E= -470.731203210193     Delta-E=       -0.000000001023 Rises=F Damp=F
 DIIS: error= 3.14D-07 at cycle   9 NSaved=   9.
 NSaved= 9 IEnMin= 9 EnMin= -470.731203210193     IErMin= 9 ErrMin= 3.14D-07
 ErrMax= 3.14D-07  0.00D+00 EMaxC= 1.00D-01 BMatC= 3.56D-11 BMatP= 6.22D-10
 IDIUse=1 WtCom= 1.00D+00 WtEn= 0.00D+00
 Coeff-Com:  0.518D-05-0.311D-04-0.223D-03 0.411D-03 0.255D-02 0.428D-02
 Coeff-Com: -0.873D-01-0.874D-01 0.117D+01
 Coeff:      0.518D-05-0.311D-04-0.223D-03 0.411D-03 0.255D-02 0.428D-02
 Coeff:     -0.873D-01-0.874D-01 0.117D+01
 Gap=     0.655 Goal=   None    Shift=    0.000
 RMSDP=7.12D-08 MaxDP=1.26D-06 DE=-1.02D-09 OVMax= 2.17D-06

 Cycle  10  Pass 1  IDiag  1:
 E= -470.731203210282     Delta-E=       -0.000000000088 Rises=F Damp=F
 DIIS: error= 7.29D-08 at cycle  10 NSaved=  10.
 NSaved=10 IEnMin=10 EnMin= -470.731203210282     IErMin=10 ErrMin= 7.29D-08
 ErrMax= 7.29D-08  0.00D+00 EMaxC= 1.00D-01 BMatC= 1.36D-12 BMatP= 3.56D-11
 IDIUse=1 WtCom= 1.00D+00 WtEn= 0.00D+00
 Coeff-Com:  0.266D-06-0.108D-06-0.684D-05-0.128D-03 0.142D-03 0.364D-02
 Coeff-Com:  0.769D-03-0.468D-01-0.110D+00 0.115D+01
 Coeff:      0.266D-06-0.108D-06-0.684D-05-0.128D-03 0.142D-03 0.364D-02
 Coeff:      0.769D-03-0.468D-01-0.110D+00 0.115D+01
 Gap=     0.655 Goal=   None    Shift=    0.000
 RMSDP=1.37D-08 MaxDP=2.53D-07 DE=-8.84D-11 OVMax= 4.83D-07

 Cycle  11  Pass 1  IDiag  1:
 E= -470.731203210294     Delta-E=       -0.000000000013 Rises=F Damp=F
 DIIS: error= 7.55D-09 at cycle  11 NSaved=  11.
 NSaved=11 IEnMin=11 EnMin= -470.731203210294     IErMin=11 ErrMin= 7.55D-09
 ErrMax= 7.55D-09  0.00D+00 EMaxC= 1.00D-01 BMatC= 3.53D-14 BMatP= 1.36D-12
 IDIUse=1 WtCom= 1.00D+00 WtEn= 0.00D+00
 Coeff-Com: -0.178D-06 0.872D-06 0.685D-05 0.180D-04-0.973D-04-0.898D-03
 Coeff-Com:  0.204D-02 0.122D-01-0.240D-02-0.268D+00 0.126D+01
 Coeff:     -0.178D-06 0.872D-06 0.685D-05 0.180D-04-0.973D-04-0.898D-03
 Coeff:      0.204D-02 0.122D-01-0.240D-02-0.268D+00 0.126D+01
 Gap=     0.655 Goal=   None    Shift=    0.000
 RMSDP=1.90D-09 MaxDP=3.21D-08 DE=-1.25D-11 OVMax= 6.27D-08

 SCF Done:  E(RHF) =  -470.731203210     A.U. after   11 cycles
            NFock= 11  Conv=0.19D-08     -V/T= 2.0010
 KE= 4.702405819631D+02 PE=-2.453251998318D+03 EE= 8.322430014220D+02
 Leave Link  502 at Thu May  6 06:49:32 2021, MaxMem=   524288000 cpu:              25.0 elap:              16.8
 (Enter /opt/gaussian/g16_legacy/l801.exe)
 ExpMin= 1.61D-01 ExpMax= 3.05D+03 ExpMxC= 4.57D+02 IAcc=3 IRadAn=         5 AccDes= 0.00D+00
 HarFok:  IExCor=  205 AccDes= 0.00D+00 IRadAn=         5 IDoV=-2 UseB2=F ITyADJ=14
 ICtDFT= 12500011 ScaDFX=  1.000000  1.000000  1.000000  1.000000
 Largest valence mixing into a core orbital is  1.98D-04
 Largest core mixing into a valence orbital is  3.30D-05
 Range of M.O.s used for correlation:    13   236
 NBasis=   236 NAE=    50 NBE=    50 NFC=    12 NFV=     0
 NROrb=    224 NOA=    38 NOB=    38 NVA=   186 NVB=   186
 Leave Link  801 at Thu May  6 06:49:33 2021, MaxMem=   524288000 cpu:               2.1 elap:               1.1
 (Enter /opt/gaussian/g16_legacy/l906.exe)
 FulOut=F Deriv=F AODrv=F NAtomX=    40
   MMem=         154  MDisk=          38 MDiskD=          38
  W3Min=     1668048 MinDsk=     1838182 NBas6D=         236
 NBas2D=       28290    NTT=       27966    LW2=     2000000
    MDV=   523953798 MDiskM=       30717 NBas2p=       18860
 Fully direct method using O(OVN) memory.
 IMap=   1   2   3   4   5   6   7   8   9  10  11  12  13  14  15  16  17  18  19  20
 IMap=  21  22  23  24  25  26  27  28  29  30  31  32  33  34  35  36  37  38
 JobTyp=1 Pass  1:  I=   1 to  38 NPSUse=  2 ParTrn=T ParDer=T DoDerP=F.
 Spin components of T(2) and E(2):
     alpha-alpha T2 =       0.6292220213D-01 E2=     -0.1845346088D+00
     alpha-beta  T2 =       0.4045196690D+00 E2=     -0.1215155440D+01
     beta-beta   T2 =       0.6292220213D-01 E2=     -0.1845346088D+00
 The integrals were generated   1 times.
 ANorm=    0.1237078847D+01
 E2 =    -0.1584224657D+01 EUMP2 =    -0.47231542786779D+03
 Leave Link  906 at Thu May  6 06:50:22 2021, MaxMem=   524288000 cpu:              96.8 elap:              48.7
 (Enter /opt/gaussian/g16_legacy/l601.exe)
 Copying SCF densities to generalized density rwf, IOpCl= 0 IROHF=0.

 **********************************************************************

            Population analysis using the SCF density.

 **********************************************************************

 Orbital symmetries:
       Occupied  (A) (A) (A) (A) (A) (A) (A) (A) (A) (A) (A) (A)
                 (A) (A) (A) (A) (A) (A) (A) (A) (A) (A) (A) (A)
                 (A) (A) (A) (A) (A) (A) (A) (A) (A) (A) (A) (A)
                 (A) (A) (A) (A) (A) (A) (A) (A) (A) (A) (A) (A)
                 (A) (A)
       Virtual   (A) (A) (A) (A) (A) (A) (A) (A) (A) (A) (A) (A)
                 (A) (A) (A) (A) (A) (A) (A) (A) (A) (A) (A) (A)
                 (A) (A) (A) (A) (A) (A) (A) (A) (A) (A) (A) (A)
                 (A) (A) (A) (A) (A) (A) (A) (A) (A) (A) (A) (A)
                 (A) (A) (A) (A) (A) (A) (A) (A) (A) (A) (A) (A)
                 (A) (A) (A) (A) (A) (A) (A) (A) (A) (A) (A) (A)
                 (A) (A) (A) (A) (A) (A) (A) (A) (A) (A) (A) (A)
                 (A) (A) (A) (A) (A) (A) (A) (A) (A) (A) (A) (A)
                 (A) (A) (A) (A) (A) (A) (A) (A) (A) (A) (A) (A)
                 (A) (A) (A) (A) (A) (A) (A) (A) (A) (A) (A) (A)
                 (A) (A) (A) (A) (A) (A) (A) (A) (A) (A) (A) (A)
                 (A) (A) (A) (A) (A) (A) (A) (A) (A) (A) (A) (A)
                 (A) (A) (A) (A) (A) (A) (A) (A) (A) (A) (A) (A)
                 (A) (A) (A) (A) (A) (A) (A) (A) (A) (A) (A) (A)
                 (A) (A) (A) (A) (A) (A) (A) (A) (A) (A) (A) (A)
                 (A) (A) (A) (A) (A) (A)
 The electronic state is 1-A.
 Alpha  occ. eigenvalues --  -11.21620 -11.21604 -11.21573 -11.21522 -11.21444
 Alpha  occ. eigenvalues --  -11.21381 -11.21358 -11.21295 -11.21085 -11.21051
 Alpha  occ. eigenvalues --  -11.20957 -11.20793  -1.08476  -1.08367  -1.03580
 Alpha  occ. eigenvalues --   -1.03426  -0.96015  -0.95881  -0.87049  -0.86893
 Alpha  occ. eigenvalues --   -0.79727  -0.79428  -0.78302  -0.78187  -0.65107
 Alpha  occ. eigenvalues --   -0.64999  -0.60998  -0.60814  -0.59682  -0.59038
 Alpha  occ. eigenvalues --   -0.57618  -0.57506  -0.55345  -0.55126  -0.52783
 Alpha  occ. eigenvalues --   -0.52640  -0.52447  -0.52212  -0.50008  -0.49763
 Alpha  occ. eigenvalues --   -0.47954  -0.47766  -0.46669  -0.46511  -0.45796
 Alpha  occ. eigenvalues --   -0.45734  -0.45721  -0.45654  -0.43804  -0.43563
 Alpha virt. eigenvalues --    0.21921   0.23115   0.23608   0.24914   0.26261
 Alpha virt. eigenvalues --    0.26632   0.26863   0.27184   0.28079   0.29253
 Alpha virt. eigenvalues --    0.30162   0.31151   0.31452   0.31927   0.32281
 Alpha virt. eigenvalues --    0.32357   0.33363   0.34022   0.34053   0.34310
 Alpha virt. eigenvalues --    0.34734   0.35179   0.35768   0.36078   0.36403
 Alpha virt. eigenvalues --    0.37023   0.37315   0.38704   0.39565   0.39984
 Alpha virt. eigenvalues --    0.40793   0.41368   0.44820   0.45640   0.46545
 Alpha virt. eigenvalues --    0.47369   0.48289   0.49835   0.68100   0.68860
 Alpha virt. eigenvalues --    0.70281   0.71292   0.71721   0.74223   0.75165
 Alpha virt. eigenvalues --    0.75592   0.76399   0.76989   0.78012   0.78085
 Alpha virt. eigenvalues --    0.80603   0.82557   0.83592   0.85292   0.86874
 Alpha virt. eigenvalues --    0.86951   0.87794   0.92223   0.95169   0.96151
 Alpha virt. eigenvalues --    0.96315   0.97242   0.98482   0.99315   1.01671
 Alpha virt. eigenvalues --    1.02777   1.05480   1.05688   1.06954   1.09949
 Alpha virt. eigenvalues --    1.10828   1.11142   1.11684   1.12764   1.15607
 Alpha virt. eigenvalues --    1.16155   1.16598   1.17043   1.17310   1.18387
 Alpha virt. eigenvalues --    1.18808   1.19588   1.20201   1.20466   1.20721
 Alpha virt. eigenvalues --    1.20927   1.21061   1.21266   1.21571   1.21932
 Alpha virt. eigenvalues --    1.22031   1.22231   1.23180   1.23570   1.23718
 Alpha virt. eigenvalues --    1.24759   1.24945   1.25942   1.27041   1.27580
 Alpha virt. eigenvalues --    1.31181   1.40111   1.41519   1.42711   1.55526
 Alpha virt. eigenvalues --    1.56143   1.65905   1.66484   1.67296   1.67709
 Alpha virt. eigenvalues --    1.71103   1.71284   1.72811   1.74188   1.79509
 Alpha virt. eigenvalues --    1.80104   1.81181   1.85854   1.92862   1.93782
 Alpha virt. eigenvalues --    2.05171   2.05283   2.13348   2.13570   2.14442
 Alpha virt. eigenvalues --    2.16104   2.17860   2.18105   2.22557   2.22618
 Alpha virt. eigenvalues --    2.25634   2.25740   2.26030   2.27147   2.27626
 Alpha virt. eigenvalues --    2.28740   2.32841   2.33865   2.33995   2.35310
 Alpha virt. eigenvalues --    2.36103   2.37339   2.39559   2.40983   2.43052
 Alpha virt. eigenvalues --    2.43608   2.56533   2.56746   2.56974   2.58062
 Alpha virt. eigenvalues --    2.59623   2.60515   2.66750   2.67245   2.67701
 Alpha virt. eigenvalues --    2.67734   2.67813   2.69362   2.76909   2.77049
 Alpha virt. eigenvalues --    2.77490   2.77759   2.80007   2.80292   2.91436
 Alpha virt. eigenvalues --    2.91977   2.95437   2.96019   2.98761   2.99758
 Alpha virt. eigenvalues --    3.13783   3.14029   3.18713   3.19373   4.55574
 Alpha virt. eigenvalues --    4.56041   4.62616   4.63446   4.72097   4.72908
 Alpha virt. eigenvalues --    4.79965   4.80308   4.87501   4.88882   4.99288
 Alpha virt. eigenvalues --    5.00758
          Condensed to atoms (all electrons):
               1          2          3          4          5          6
     1  C    5.091495   0.351672  -0.057345   0.396387   0.396543  -0.043773
     2  C    0.351672   5.058622   0.339659  -0.041148  -0.041002   0.399038
     3  C   -0.057345   0.339659   5.103185  -0.002909  -0.002881  -0.039757
     4  H    0.396387  -0.041148  -0.002909   0.566522  -0.033184  -0.003047
     5  H    0.396543  -0.041002  -0.002881  -0.033184   0.565506   0.004549
     6  H   -0.043773   0.399038  -0.039757  -0.003047   0.004549   0.564794
     7  H   -0.043624   0.398951  -0.039751   0.004570  -0.003127  -0.031426
     8  H   -0.003760  -0.038555   0.392970   0.000083   0.002372   0.004174
     9  H   -0.003810  -0.038822   0.392455   0.002544   0.000086  -0.002931
    10  H    0.004403  -0.035423   0.393034  -0.000066  -0.000065  -0.002666
    11  C    0.355391  -0.051703   0.004077  -0.041552  -0.041302  -0.003350
    12  C   -0.052231   0.003965  -0.000084  -0.003222  -0.003225  -0.000066
    13  C    0.004058  -0.000085   0.000001  -0.000052  -0.000050  -0.000001
    14  H   -0.041523  -0.003239  -0.000055  -0.002877   0.004437   0.002434
    15  H   -0.041274  -0.003241  -0.000054   0.004445  -0.002928   0.000250
    16  H   -0.003123  -0.000064  -0.000001   0.002384   0.000229   0.000017
    17  H   -0.003134  -0.000064  -0.000001   0.000239   0.002374  -0.000003
    18  H   -0.000069  -0.000001  -0.000000  -0.000001   0.000013   0.000000
    19  H   -0.000069  -0.000001  -0.000000   0.000013  -0.000001  -0.000002
    20  H   -0.000087   0.000001  -0.000000   0.000001   0.000001   0.000000
    21  C    0.000000   0.000000   0.000000  -0.000000   0.000000   0.000000
    22  C    0.000000  -0.000000  -0.000000   0.000000  -0.000000   0.000000
    23  C   -0.000000   0.000000  -0.000000  -0.000000   0.000000   0.000000
    24  H   -0.000000   0.000000   0.000000   0.000000   0.000000  -0.000000
    25  H   -0.000000   0.000000  -0.000000  -0.000000   0.000000  -0.000000
    26  H   -0.000000  -0.000000  -0.000000  -0.000000  -0.000000  -0.000000
    27  H   -0.000000  -0.000000   0.000000   0.000000   0.000000   0.000000
    28  H    0.000000  -0.000000   0.000000  -0.000000   0.000000   0.000000
    29  H    0.000000  -0.000000  -0.000000   0.000000   0.000000   0.000000
    30  H   -0.000000  -0.000000  -0.000000   0.000000  -0.000000  -0.000000
    31  C    0.000001  -0.000000  -0.000000  -0.000000  -0.000001   0.000000
    32  C    0.000012  -0.000004   0.000035   0.000001   0.000223   0.000000
    33  C   -0.000934   0.000128  -0.001449  -0.000248  -0.000831  -0.000006
    34  H   -0.000000   0.000000  -0.000000  -0.000000   0.000000  -0.000000
    35  H   -0.000000   0.000000  -0.000000   0.000000   0.000000  -0.000000
    36  H    0.000009   0.000000  -0.000001   0.000003   0.000009  -0.000000
    37  H   -0.000002  -0.000002   0.000008  -0.000001   0.000210   0.000000
    38  H    0.000040  -0.000004  -0.000130   0.000004   0.000011   0.000000
    39  H    0.000010  -0.000003   0.000070   0.000019   0.000023   0.000000
    40  H   -0.000286  -0.000311  -0.001419   0.000578  -0.000101  -0.000005
               7          8          9         10         11         12
     1  C   -0.043624  -0.003760  -0.003810   0.004403   0.355391  -0.052231
     2  C    0.398951  -0.038555  -0.038822  -0.035423  -0.051703   0.003965
     3  C   -0.039751   0.392970   0.392455   0.393034   0.004077  -0.000084
     4  H    0.004570   0.000083   0.002544  -0.000066  -0.041552  -0.003222
     5  H   -0.003127   0.002372   0.000086  -0.000065  -0.041302  -0.003225
     6  H   -0.031426   0.004174  -0.002931  -0.002666  -0.003350  -0.000066
     7  H    0.564954  -0.002998   0.004212  -0.002638  -0.003382  -0.000065
     8  H   -0.002998   0.544537  -0.030102  -0.027219  -0.000065  -0.000001
     9  H    0.004212  -0.030102   0.547327  -0.027382  -0.000072  -0.000000
    10  H   -0.002638  -0.027219  -0.027382   0.538584  -0.000083   0.000001
    11  C   -0.003382  -0.000065  -0.000072  -0.000083   5.082368   0.352477
    12  C   -0.000065  -0.000001  -0.000000   0.000001   0.352477   5.060763
    13  C   -0.000001   0.000000  -0.000000  -0.000000  -0.057325   0.340693
    14  H    0.000251  -0.000002   0.000013   0.000000   0.395998  -0.041886
    15  H    0.002426   0.000012  -0.000002   0.000000   0.395835  -0.041803
    16  H   -0.000003   0.000000  -0.000002   0.000000  -0.043722   0.399102
    17  H    0.000017  -0.000002   0.000000   0.000000  -0.043701   0.399111
    18  H   -0.000002   0.000000  -0.000000  -0.000000  -0.003798  -0.038906
    19  H    0.000000  -0.000000   0.000000  -0.000000  -0.003798  -0.038907
    20  H    0.000000  -0.000000  -0.000000   0.000000   0.004399  -0.035836
    21  C    0.000000   0.000000   0.000000  -0.000000  -0.000000  -0.000000
    22  C   -0.000000  -0.000000   0.000000   0.000000  -0.000000   0.000000
    23  C    0.000000   0.000000  -0.000000  -0.000000  -0.000000  -0.000000
    24  H    0.000000  -0.000000   0.000000  -0.000000   0.000000  -0.000000
    25  H   -0.000000   0.000000   0.000000   0.000000   0.000000  -0.000000
    26  H   -0.000000   0.000000  -0.000000   0.000000   0.000000  -0.000000
    27  H    0.000000  -0.000000   0.000000  -0.000000   0.000000   0.000000
    28  H   -0.000000   0.000000  -0.000000  -0.000000  -0.000000   0.000000
    29  H    0.000000   0.000000  -0.000000  -0.000000   0.000000   0.000000
    30  H   -0.000000  -0.000000   0.000000   0.000000   0.000000   0.000000
    31  C   -0.000000  -0.000003  -0.000000   0.000000  -0.000000   0.000000
    32  C    0.000000   0.000055   0.000011  -0.000001  -0.000001  -0.000001
    33  C   -0.000008  -0.000945  -0.000153   0.000052   0.000024   0.000001
    34  H   -0.000000   0.000000   0.000000   0.000000   0.000000  -0.000000
    35  H   -0.000000  -0.000002  -0.000000  -0.000000  -0.000000  -0.000000
    36  H    0.000000  -0.000003   0.000000   0.000000  -0.000001   0.000000
    37  H   -0.000000   0.000086   0.000001  -0.000000  -0.000000  -0.000000
    38  H    0.000001   0.000360   0.000058   0.000007  -0.000000   0.000000
    39  H    0.000000   0.000059   0.000044  -0.000002  -0.000000  -0.000000
    40  H    0.000007  -0.000958  -0.000115   0.000073   0.000032   0.000004
              13         14         15         16         17         18
     1  C    0.004058  -0.041523  -0.041274  -0.003123  -0.003134  -0.000069
     2  C   -0.000085  -0.003239  -0.003241  -0.000064  -0.000064  -0.000001
     3  C    0.000001  -0.000055  -0.000054  -0.000001  -0.000001  -0.000000
     4  H   -0.000052  -0.002877   0.004445   0.002384   0.000239  -0.000001
     5  H   -0.000050   0.004437  -0.002928   0.000229   0.002374   0.000013
     6  H   -0.000001   0.002434   0.000250   0.000017  -0.000003   0.000000
     7  H   -0.000001   0.000251   0.002426  -0.000003   0.000017  -0.000002
     8  H    0.000000  -0.000002   0.000012   0.000000  -0.000002   0.000000
     9  H   -0.000000   0.000013  -0.000002  -0.000002   0.000000  -0.000000
    10  H   -0.000000   0.000000   0.000000   0.000000   0.000000  -0.000000
    11  C   -0.057325   0.395998   0.395835  -0.043722  -0.043701  -0.003798
    12  C    0.340693  -0.041886  -0.041803   0.399102   0.399111  -0.038906
    13  C    5.097290  -0.002869  -0.002867  -0.039873  -0.039860   0.391288
    14  H   -0.002869   0.566702  -0.031402  -0.002973   0.004569   0.000158
    15  H   -0.002867  -0.031402   0.566497   0.004566  -0.002958   0.002624
    16  H   -0.039873  -0.002973   0.004566   0.564356  -0.031628   0.004220
    17  H   -0.039860   0.004569  -0.002958  -0.031628   0.564033  -0.002890
    18  H    0.391288   0.000158   0.002624   0.004220  -0.002890   0.548753
    19  H    0.391281   0.002625   0.000158  -0.002892   0.004218  -0.029141
    20  H    0.394122  -0.000059  -0.000059  -0.002507  -0.002506  -0.027482
    21  C   -0.000000   0.000000   0.000000   0.000000  -0.000000  -0.000000
    22  C   -0.000000   0.000000  -0.000000  -0.000000   0.000000   0.000000
    23  C   -0.000000   0.000000   0.000000   0.000000   0.000000  -0.000000
    24  H    0.000000  -0.000000  -0.000000  -0.000000   0.000000  -0.000000
    25  H    0.000000  -0.000000  -0.000000  -0.000000   0.000000  -0.000000
    26  H    0.000000  -0.000000  -0.000000  -0.000000   0.000000  -0.000000
    27  H   -0.000000  -0.000000   0.000000  -0.000000   0.000000   0.000000
    28  H   -0.000000   0.000000  -0.000000   0.000000   0.000000   0.000000
    29  H   -0.000000   0.000000   0.000000   0.000000   0.000000   0.000000
    30  H    0.000000  -0.000000  -0.000000  -0.000000  -0.000000   0.000000
    31  C   -0.000000   0.000000  -0.000000  -0.000000   0.000000   0.000000
    32  C    0.000000   0.000000   0.000000   0.000000   0.000002  -0.000000
    33  C    0.000000  -0.000000  -0.000001  -0.000001  -0.000002  -0.000000
    34  H    0.000000  -0.000000  -0.000000  -0.000000   0.000000  -0.000000
    35  H    0.000000  -0.000000   0.000000   0.000000   0.000000  -0.000000
    36  H   -0.000000   0.000000   0.000000   0.000000   0.000005   0.000000
    37  H   -0.000000   0.000000  -0.000000  -0.000000   0.000001  -0.000000
    38  H   -0.000000   0.000000   0.000000   0.000000   0.000000   0.000000
    39  H   -0.000000   0.000000   0.000000   0.000000   0.000000   0.000000
    40  H   -0.000000  -0.000000   0.000001   0.000003   0.000002   0.000000
              19         20         21         22         23         24
     1  C   -0.000069  -0.000087   0.000000   0.000000  -0.000000  -0.000000
     2  C   -0.000001   0.000001   0.000000  -0.000000   0.000000   0.000000
     3  C   -0.000000  -0.000000   0.000000  -0.000000  -0.000000   0.000000
     4  H    0.000013   0.000001  -0.000000   0.000000  -0.000000   0.000000
     5  H   -0.000001   0.000001   0.000000  -0.000000   0.000000   0.000000
     6  H   -0.000002   0.000000   0.000000   0.000000   0.000000  -0.000000
     7  H    0.000000   0.000000   0.000000  -0.000000   0.000000   0.000000
     8  H   -0.000000  -0.000000   0.000000  -0.000000   0.000000  -0.000000
     9  H    0.000000  -0.000000   0.000000   0.000000  -0.000000   0.000000
    10  H   -0.000000   0.000000  -0.000000   0.000000  -0.000000  -0.000000
    11  C   -0.003798   0.004399  -0.000000  -0.000000  -0.000000   0.000000
    12  C   -0.038907  -0.035836  -0.000000   0.000000  -0.000000  -0.000000
    13  C    0.391281   0.394122  -0.000000  -0.000000  -0.000000   0.000000
    14  H    0.002625  -0.000059   0.000000   0.000000   0.000000  -0.000000
    15  H    0.000158  -0.000059   0.000000  -0.000000   0.000000  -0.000000
    16  H   -0.002892  -0.002507   0.000000  -0.000000   0.000000  -0.000000
    17  H    0.004218  -0.002506  -0.000000   0.000000   0.000000   0.000000
    18  H   -0.029141  -0.027482  -0.000000   0.000000  -0.000000  -0.000000
    19  H    0.548778  -0.027488   0.000000   0.000000   0.000000  -0.000000
    20  H   -0.027488   0.537145   0.000000  -0.000000   0.000000   0.000000
    21  C    0.000000   0.000000   5.084067   0.352295  -0.057371   0.396103
    22  C    0.000000  -0.000000   0.352295   5.060460   0.340650  -0.041831
    23  C    0.000000   0.000000  -0.057371   0.340650   5.097413  -0.002863
    24  H   -0.000000   0.000000   0.396103  -0.041831  -0.002863   0.566942
    25  H   -0.000000  -0.000000   0.396047  -0.041912  -0.002868  -0.031547
    26  H   -0.000000   0.000000  -0.043641   0.399112  -0.039901  -0.002976
    27  H    0.000000   0.000000  -0.043630   0.399124  -0.039905   0.004568
    28  H    0.000000   0.000000  -0.003794  -0.038902   0.391256   0.000159
    29  H    0.000000   0.000000  -0.003794  -0.038895   0.391266   0.002625
    30  H    0.000000  -0.000000   0.004401  -0.035844   0.394094  -0.000059
    31  C    0.000000  -0.000000   0.355429  -0.051928   0.004075  -0.041648
    32  C    0.000000   0.000000  -0.051995   0.003981  -0.000085  -0.003232
    33  C   -0.000000  -0.000000   0.004053  -0.000084   0.000001  -0.000054
    34  H    0.000000   0.000000  -0.041733  -0.003264  -0.000052  -0.002804
    35  H   -0.000000  -0.000000  -0.041710  -0.003255  -0.000052   0.004464
    36  H    0.000000  -0.000000  -0.003221  -0.000065  -0.000000   0.002404
    37  H    0.000000   0.000000  -0.003166  -0.000066  -0.000000   0.000240
    38  H    0.000000   0.000000  -0.000069  -0.000001   0.000000  -0.000001
    39  H   -0.000000   0.000000  -0.000067  -0.000001  -0.000000   0.000013
    40  H    0.000000   0.000000  -0.000083   0.000001  -0.000000   0.000001
              25         26         27         28         29         30
     1  C   -0.000000  -0.000000  -0.000000   0.000000   0.000000  -0.000000
     2  C    0.000000  -0.000000  -0.000000  -0.000000  -0.000000  -0.000000
     3  C   -0.000000  -0.000000   0.000000   0.000000  -0.000000  -0.000000
     4  H   -0.000000  -0.000000   0.000000  -0.000000   0.000000   0.000000
     5  H    0.000000  -0.000000   0.000000   0.000000   0.000000  -0.000000
     6  H   -0.000000  -0.000000   0.000000   0.000000   0.000000  -0.000000
     7  H   -0.000000  -0.000000   0.000000  -0.000000   0.000000  -0.000000
     8  H    0.000000   0.000000  -0.000000   0.000000   0.000000  -0.000000
     9  H    0.000000  -0.000000   0.000000  -0.000000  -0.000000   0.000000
    10  H    0.000000   0.000000  -0.000000  -0.000000  -0.000000   0.000000
    11  C    0.000000   0.000000   0.000000  -0.000000   0.000000   0.000000
    12  C   -0.000000  -0.000000   0.000000   0.000000   0.000000   0.000000
    13  C    0.000000   0.000000  -0.000000  -0.000000  -0.000000   0.000000
    14  H   -0.000000  -0.000000  -0.000000   0.000000   0.000000  -0.000000
    15  H   -0.000000  -0.000000   0.000000  -0.000000   0.000000  -0.000000
    16  H   -0.000000  -0.000000  -0.000000   0.000000   0.000000  -0.000000
    17  H    0.000000   0.000000   0.000000   0.000000   0.000000  -0.000000
    18  H   -0.000000  -0.000000   0.000000   0.000000   0.000000   0.000000
    19  H   -0.000000  -0.000000   0.000000   0.000000   0.000000   0.000000
    20  H   -0.000000   0.000000   0.000000   0.000000   0.000000  -0.000000
    21  C    0.396047  -0.043641  -0.043630  -0.003794  -0.003794   0.004401
    22  C   -0.041912   0.399112   0.399124  -0.038902  -0.038895  -0.035844
    23  C   -0.002868  -0.039901  -0.039905   0.391256   0.391266   0.394094
    24  H   -0.031547  -0.002976   0.004568   0.000159   0.002625  -0.000059
    25  H    0.567526   0.004576  -0.002990   0.002628   0.000159  -0.000059
    26  H    0.004576   0.564371  -0.031654   0.004222  -0.002892  -0.002506
    27  H   -0.002990  -0.031654   0.564400  -0.002893   0.004221  -0.002505
    28  H    0.002628   0.004222  -0.002893   0.548990  -0.029155  -0.027508
    29  H    0.000159  -0.002892   0.004221  -0.029155   0.548916  -0.027504
    30  H   -0.000059  -0.002506  -0.002505  -0.027508  -0.027504   0.537417
    31  C   -0.041708  -0.003196  -0.003189  -0.000070  -0.000070  -0.000087
    32  C   -0.003267  -0.000065  -0.000065  -0.000001  -0.000001   0.000001
    33  C   -0.000052  -0.000000  -0.000001  -0.000000  -0.000000  -0.000000
    34  H    0.004472   0.002409   0.000237  -0.000001   0.000013   0.000001
    35  H   -0.002801   0.000237   0.002404   0.000013  -0.000001   0.000001
    36  H    0.000240   0.000017  -0.000003   0.000000  -0.000002   0.000000
    37  H    0.002401  -0.000003   0.000017  -0.000002   0.000000   0.000000
    38  H    0.000013   0.000000  -0.000002   0.000000  -0.000000  -0.000000
    39  H   -0.000001  -0.000002   0.000000  -0.000000   0.000000  -0.000000
    40  H    0.000001   0.000000   0.000000  -0.000000  -0.000000   0.000000
              31         32         33         34         35         36
     1  C    0.000001   0.000012  -0.000934  -0.000000  -0.000000   0.000009
     2  C   -0.000000  -0.000004   0.000128   0.000000   0.000000   0.000000
     3  C   -0.000000   0.000035  -0.001449  -0.000000  -0.000000  -0.000001
     4  H   -0.000000   0.000001  -0.000248  -0.000000   0.000000   0.000003
     5  H   -0.000001   0.000223  -0.000831   0.000000   0.000000   0.000009
     6  H    0.000000   0.000000  -0.000006  -0.000000  -0.000000  -0.000000
     7  H   -0.000000   0.000000  -0.000008  -0.000000  -0.000000   0.000000
     8  H   -0.000003   0.000055  -0.000945   0.000000  -0.000002  -0.000003
     9  H   -0.000000   0.000011  -0.000153   0.000000  -0.000000   0.000000
    10  H    0.000000  -0.000001   0.000052   0.000000  -0.000000   0.000000
    11  C   -0.000000  -0.000001   0.000024   0.000000  -0.000000  -0.000001
    12  C    0.000000  -0.000001   0.000001  -0.000000  -0.000000   0.000000
    13  C   -0.000000   0.000000   0.000000   0.000000   0.000000  -0.000000
    14  H    0.000000   0.000000  -0.000000  -0.000000  -0.000000   0.000000
    15  H   -0.000000   0.000000  -0.000001  -0.000000   0.000000   0.000000
    16  H   -0.000000   0.000000  -0.000001  -0.000000   0.000000   0.000000
    17  H    0.000000   0.000002  -0.000002   0.000000   0.000000   0.000005
    18  H    0.000000  -0.000000  -0.000000  -0.000000  -0.000000   0.000000
    19  H    0.000000   0.000000  -0.000000   0.000000  -0.000000   0.000000
    20  H   -0.000000   0.000000  -0.000000   0.000000  -0.000000  -0.000000
    21  C    0.355429  -0.051995   0.004053  -0.041733  -0.041710  -0.003221
    22  C   -0.051928   0.003981  -0.000084  -0.003264  -0.003255  -0.000065
    23  C    0.004075  -0.000085   0.000001  -0.000052  -0.000052  -0.000000
    24  H   -0.041648  -0.003232  -0.000054  -0.002804   0.004464   0.002404
    25  H   -0.041708  -0.003267  -0.000052   0.004472  -0.002801   0.000240
    26  H   -0.003196  -0.000065  -0.000000   0.002409   0.000237   0.000017
    27  H   -0.003189  -0.000065  -0.000001   0.000237   0.002404  -0.000003
    28  H   -0.000070  -0.000001  -0.000000  -0.000001   0.000013   0.000000
    29  H   -0.000070  -0.000001  -0.000000   0.000013  -0.000001  -0.000002
    30  H   -0.000087   0.000001  -0.000000   0.000001   0.000001   0.000000
    31  C    5.084397   0.351692  -0.056959   0.396236   0.396069  -0.043596
    32  C    0.351692   5.063321   0.338911  -0.041890  -0.041734   0.398928
    33  C   -0.056959   0.338911   5.112666  -0.002831  -0.002903  -0.039653
    34  H    0.396236  -0.041890  -0.002831   0.566849  -0.031462  -0.002976
    35  H    0.396069  -0.041734  -0.002903  -0.031462   0.566866   0.004566
    36  H   -0.043596   0.398928  -0.039653  -0.002976   0.004566   0.564749
    37  H   -0.043787   0.398843  -0.040093   0.004579  -0.002963  -0.031786
    38  H   -0.003823  -0.039279   0.391780   0.000147   0.002676   0.004245
    39  H   -0.003889  -0.038437   0.389650   0.002603   0.000160  -0.002913
    40  H    0.004357  -0.036078   0.396049  -0.000072  -0.000054  -0.002527
              37         38         39         40
     1  C   -0.000002   0.000040   0.000010  -0.000286
     2  C   -0.000002  -0.000004  -0.000003  -0.000311
     3  C    0.000008  -0.000130   0.000070  -0.001419
     4  H   -0.000001   0.000004   0.000019   0.000578
     5  H    0.000210   0.000011   0.000023  -0.000101
     6  H    0.000000   0.000000   0.000000  -0.000005
     7  H   -0.000000   0.000001   0.000000   0.000007
     8  H    0.000086   0.000360   0.000059  -0.000958
     9  H    0.000001   0.000058   0.000044  -0.000115
    10  H   -0.000000   0.000007  -0.000002   0.000073
    11  C   -0.000000  -0.000000  -0.000000   0.000032
    12  C   -0.000000   0.000000  -0.000000   0.000004
    13  C   -0.000000  -0.000000  -0.000000  -0.000000
    14  H    0.000000   0.000000   0.000000  -0.000000
    15  H   -0.000000   0.000000   0.000000   0.000001
    16  H   -0.000000   0.000000   0.000000   0.000003
    17  H    0.000001   0.000000   0.000000   0.000002
    18  H   -0.000000   0.000000   0.000000   0.000000
    19  H    0.000000   0.000000  -0.000000   0.000000
    20  H    0.000000   0.000000   0.000000   0.000000
    21  C   -0.003166  -0.000069  -0.000067  -0.000083
    22  C   -0.000066  -0.000001  -0.000001   0.000001
    23  C   -0.000000   0.000000  -0.000000  -0.000000
    24  H    0.000240  -0.000001   0.000013   0.000001
    25  H    0.002401   0.000013  -0.000001   0.000001
    26  H   -0.000003   0.000000  -0.000002   0.000000
    27  H    0.000017  -0.000002   0.000000   0.000000
    28  H   -0.000002   0.000000  -0.000000  -0.000000
    29  H    0.000000  -0.000000   0.000000  -0.000000
    30  H    0.000000  -0.000000  -0.000000   0.000000
    31  C   -0.043787  -0.003823  -0.003889   0.004357
    32  C    0.398843  -0.039279  -0.038437  -0.036078
    33  C   -0.040093   0.391780   0.389650   0.396049
    34  H    0.004579   0.000147   0.002603  -0.000072
    35  H   -0.002963   0.002676   0.000160  -0.000054
    36  H   -0.031786   0.004245  -0.002913  -0.002527
    37  H    0.566930  -0.002937   0.004258  -0.002774
    38  H   -0.002937   0.549785  -0.029052  -0.028341
    39  H    0.004258  -0.029052   0.551432  -0.027060
    40  H   -0.002774  -0.028341  -0.027060   0.523314
 Mulliken charges:
               1
     1  C   -0.304978
     2  C   -0.298364
     3  C   -0.479657
     4  H    0.150514
     5  H    0.152113
     6  H    0.151776
     7  H    0.151634
     8  H    0.159904
     9  H    0.156638
    10  H    0.159391
    11  C   -0.296743
    12  C   -0.299884
    13  C   -0.475751
    14  H    0.149698
    15  H    0.149775
    16  H    0.151910
    17  H    0.152176
    18  H    0.155233
    19  H    0.155226
    20  H    0.160354
    21  C   -0.298122
    22  C   -0.299576
    23  C   -0.475655
    24  H    0.149497
    25  H    0.149143
    26  H    0.151892
    27  H    0.151864
    28  H    0.155058
    29  H    0.155113
    30  H    0.160157
    31  C   -0.298301
    32  C   -0.299883
    33  C   -0.486106
    34  H    0.149540
    35  H    0.149481
    36  H    0.151572
    37  H    0.150008
    38  H    0.154509
    39  H    0.153083
    40  H    0.175762
 Sum of Mulliken charges =  -0.00000
 Mulliken charges with hydrogens summed into heavy atoms:
               1
     1  C   -0.002352
     2  C    0.005046
     3  C   -0.003723
    11  C    0.002729
    12  C    0.004202
    13  C   -0.004938
    21  C    0.000518
    22  C    0.004181
    23  C   -0.005327
    31  C    0.000720
    32  C    0.001696
    33  C   -0.002752
 Electronic spatial extent (au):  <R**2>=           6825.0214
 Charge=             -0.0000 electrons
 Dipole moment (field-independent basis, Debye):
    X=              0.0618    Y=             -0.0065    Z=             -0.0001  Tot=              0.0622
 Quadrupole moment (field-independent basis, Debye-Ang):
   XX=            -85.8244   YY=            -85.8238   ZZ=            -83.2876
   XY=             -0.1449   XZ=              0.1779   YZ=              0.5773
 Traceless Quadrupole moment (field-independent basis, Debye-Ang):
   XX=             -0.8458   YY=             -0.8452   ZZ=              1.6910
   XY=             -0.1449   XZ=              0.1779   YZ=              0.5773
 Octapole moment (field-independent basis, Debye-Ang**2):
  XXX=              3.8747  YYY=              0.1652  ZZZ=             -0.1026  XYY=             -1.5737
  XXY=             -8.6888  XXZ=              5.4682  XZZ=              0.3652  YZZ=              0.2626
  YYZ=              0.0765  XYZ=             -2.9606
 Hexadecapole moment (field-independent basis, Debye-Ang**3):
 XXXX=          -7959.0925 YYYY=          -1532.4617 ZZZZ=           -257.0547 XXXY=              1.1281
 XXXZ=              6.1110 YYYX=            -10.3090 YYYZ=             11.5820 ZZZX=             -3.7232
 ZZZY=             -3.2722 XXYY=          -1602.2488 XXZZ=          -1342.5396 YYZZ=           -297.8148
 XXYZ=             12.3949 YYXZ=             -1.9714 ZZXY=              1.9964
 N-N= 6.800372117230D+02 E-N=-2.453251998444D+03  KE= 4.702405819631D+02
 Leave Link  601 at Thu May  6 06:50:22 2021, MaxMem=   524288000 cpu:               0.6 elap:               0.6
 (Enter /opt/gaussian/g16_legacy/l9999.exe)
 1\1\GINC-TRUENO90\SP\RMP2-FC\6-31G(d)\C12H28\JRAMOS\06-May-2021\0\\#p 
 6-31g* mp2\\Input file generated by CHIRIPA (05-May-2021 14:51:07)\\0,
 1\C,0,-0.666,-0.374,0.\C,0,-1.882,0.553,0.\C,0,-3.207,-0.21,0.\H,0,-0.
 713,-1.03,-0.88\H,0,-0.713,-1.029,0.881\H,0,-1.832,1.207,-0.88\H,0,-1.
 832,1.207,0.88\H,0,-3.283,-0.85,0.885\H,0,-3.283,-0.85,-0.885\H,0,-4.0
 63,0.472,0.\C,0,0.666,0.374,0.\C,0,1.882,-0.553,0.\C,0,3.207,0.21,0.\H
 ,0,0.713,1.029,-0.881\H,0,0.713,1.03,0.88\H,0,1.832,-1.207,-0.88\H,0,1
 .832,-1.207,0.88\H,0,3.283,0.85,0.885\H,0,3.283,0.85,-0.885\H,0,4.063,
 -0.472,0.\C,0,-1.978107,-6.585646,3.238219\C,0,-2.736222,-7.842154,3.6
 6768\C,0,-2.032599,-8.601466,4.792915\H,0,-0.966579,-6.867775,2.915482
 \H,0,-1.855889,-5.92457,4.107378\H,0,-2.858184,-8.500037,2.797662\H,0,
 -3.746127,-7.557024,3.989251\H,0,-1.924347,-7.965768,5.677658\H,0,-1.0
 31359,-8.914139,4.479299\H,0,-2.59167,-9.496107,5.084319\C,0,-2.669029
 ,-5.815777,2.114094\C,0,-1.910915,-4.559269,1.684634\C,0,-2.614538,-3.
 799957,0.559399\H,0,-2.791247,-6.476853,1.244936\H,0,-3.680557,-5.5336
 49,2.436831\H,0,-0.901009,-4.844399,1.363063\H,0,-1.788952,-3.901387,2
 .554652\H,0,-3.615778,-3.487285,0.873014\H,0,-2.72279,-4.435655,-0.325
 345\H,0,-2.055466,-2.905317,0.267994\\Version=EM64L-G16RevA.03\State=1
 -A\HF=-470.7312032\MP2=-472.3154279\RMSD=1.901e-09\PG=C01 [X(C12H28)]\
 \@


 CLIMB THE MOUNTAINS AND GET THEIR GOOD TIDINGS.
 NATURE'S PEACE WILL FLOW INTO YOU AS SUNSHINE FLOWS INTO TREES.
 THE WINDS WILL BLOW THEIR OWN FRESHNESS INTO YOU, 
 AND CARES WILL DROP OFF LIKE AUTUMN LEAVES.

                                         -- JOHN MUIR
 Job cpu time:       0 days  0 hours  2 minutes 22.1 seconds.
 Elapsed time:       0 days  0 hours  1 minutes 17.4 seconds.
 File lengths (MBytes):  RWF=     26 Int=      0 D2E=      0 Chk=      5 Scr=      1
 Normal termination of Gaussian 16 at Thu May  6 06:50:23 2021.
