 Entering Gaussian System, Link 0=/opt/gaussian/g16_legacy/g16
 Input=gaussian_04281_2_2.com
 Output=gaussian_04281_2_2.log
 Initial command:
 /opt/gaussian/g16_legacy/l1.exe "/scratch-local/jramos/2603201/Gau-16548.inp" -scrdir="/scratch-local/jramos/2603201/"
 Entering Link 1 = /opt/gaussian/g16_legacy/l1.exe PID=     16549.
  
 Copyright (c) 1988,1990,1992,1993,1995,1998,2003,2009,2016,
            Gaussian, Inc.  All Rights Reserved.
  
 This is part of the Gaussian(R) 16 program.  It is based on
 the Gaussian(R) 09 system (copyright 2009, Gaussian, Inc.),
 the Gaussian(R) 03 system (copyright 2003, Gaussian, Inc.),
 the Gaussian(R) 98 system (copyright 1998, Gaussian, Inc.),
 the Gaussian(R) 94 system (copyright 1995, Gaussian, Inc.),
 the Gaussian 92(TM) system (copyright 1992, Gaussian, Inc.),
 the Gaussian 90(TM) system (copyright 1990, Gaussian, Inc.),
 the Gaussian 88(TM) system (copyright 1988, Gaussian, Inc.),
 the Gaussian 86(TM) system (copyright 1986, Carnegie Mellon
 University), and the Gaussian 82(TM) system (copyright 1983,
 Carnegie Mellon University). Gaussian is a federally registered
 trademark of Gaussian, Inc.
  
 This software contains proprietary and confidential information,
 including trade secrets, belonging to Gaussian, Inc.
  
 This software is provided under written license and may be
 used, copied, transmitted, or stored only in accord with that
 written license.
  
 The following legend is applicable only to US Government
 contracts under FAR:
  
                    RESTRICTED RIGHTS LEGEND
  
 Use, reproduction and disclosure by the US Government is
 subject to restrictions as set forth in subparagraphs (a)
 and (c) of the Commercial Computer Software - Restricted
 Rights clause in FAR 52.227-19.
  
 Gaussian, Inc.
 340 Quinnipiac St., Bldg. 40, Wallingford CT 06492
  
  
 ---------------------------------------------------------------
 Warning -- This program may not be used in any manner that
 competes with the business of Gaussian, Inc. or will provide
 assistance to any competitor of Gaussian, Inc.  The licensee
 of this program is prohibited from giving any competitor of
 Gaussian, Inc. access to this program.  By using this program,
 the user acknowledges that Gaussian, Inc. is engaged in the
 business of creating and licensing software in the field of
 computational chemistry and represents and warrants to the
 licensee that it is not a competitor of Gaussian, Inc. and that
 it will not use this program in any manner prohibited above.
 ---------------------------------------------------------------
  

 Cite this work as:
 Gaussian 16, Revision A.03,
 M. J. Frisch, G. W. Trucks, H. B. Schlegel, G. E. Scuseria, 
 M. A. Robb, J. R. Cheeseman, G. Scalmani, V. Barone, 
 G. A. Petersson, H. Nakatsuji, X. Li, M. Caricato, A. V. Marenich, 
 J. Bloino, B. G. Janesko, R. Gomperts, B. Mennucci, H. P. Hratchian, 
 J. V. Ortiz, A. F. Izmaylov, J. L. Sonnenberg, D. Williams-Young, 
 F. Ding, F. Lipparini, F. Egidi, J. Goings, B. Peng, A. Petrone, 
 T. Henderson, D. Ranasinghe, V. G. Zakrzewski, J. Gao, N. Rega, 
 G. Zheng, W. Liang, M. Hada, M. Ehara, K. Toyota, R. Fukuda, 
 J. Hasegawa, M. Ishida, T. Nakajima, Y. Honda, O. Kitao, H. Nakai, 
 T. Vreven, K. Throssell, J. A. Montgomery, Jr., J. E. Peralta, 
 F. Ogliaro, M. J. Bearpark, J. J. Heyd, E. N. Brothers, K. N. Kudin, 
 V. N. Staroverov, T. A. Keith, R. Kobayashi, J. Normand, 
 K. Raghavachari, A. P. Rendell, J. C. Burant, S. S. Iyengar, 
 J. Tomasi, M. Cossi, J. M. Millam, M. Klene, C. Adamo, R. Cammi, 
 J. W. Ochterski, R. L. Martin, K. Morokuma, O. Farkas, 
 J. B. Foresman, and D. J. Fox, Gaussian, Inc., Wallingford CT, 2016.
 
 ******************************************
 Gaussian 16:  EM64L-G16RevA.03 25-Dec-2016
                 7-May-2021 
 ******************************************
 %chk=gaussian_04281_2_2.chk
 %nproc=2
 Will use up to    2 processors via shared memory.
 %mem=4000Mb
 -------------
 #p 6-31g* mp2
 -------------
 1/38=1,172=1/1;
 2/12=2,17=6,18=5,40=1/2;
 3/5=1,6=6,7=1,11=9,25=1,30=1/1,2,3;
 4//1;
 5/5=2,38=5/2;
 8/10=2/1;
 9/16=-3/6;
 6/7=2,8=2,9=2,10=2/1;
 99/5=1,9=1/99;
 Leave Link    1 at Fri May  7 09:38:30 2021, MaxMem=   524288000 cpu:               0.1 elap:               0.1
 (Enter /opt/gaussian/g16_legacy/l101.exe)
 ------------------------------------------------------
 Input file generated by CHIRIPA (05-May-2021 14:57:26)
 ------------------------------------------------------
 Symbolic Z-matrix:
 Charge =  0 Multiplicity = 1
 C                     1.91414   0.        0. 
 C                     1.21414   1.211     0. 
 C                    -0.18386   1.223     0. 
 C                    -0.85286   0.        0. 
 C                    -0.18386  -1.223     0. 
 C                     1.21414  -1.211     0. 
 H                     3.00014   0.        0. 
 H                     1.75514   2.153     0. 
 H                    -0.75086   2.146     0. 
 H                    -0.75086  -2.146     0. 
 H                     1.75514  -2.153     0. 
 N                    -2.33286   0.        0. 
 O                    -2.89886  -1.091     0. 
 O                    -2.89886   1.091     0. 
 C                     6.65728   1.68108   0.12205 
 C                     7.89674   2.32563   0.0527 
 C                     8.11354   3.52351   0.74018 
 C                     7.06409   4.0511    1.49091 
 C                     5.81792   3.43265   1.57972 
 C                     5.62365   2.23567   0.884 
 H                     6.49761   0.75089  -0.41521 
 H                     8.70128   1.89724  -0.53826 
 H                     9.06315   4.04344   0.70388 
 H                     5.03503   3.88402   2.17702 
 H                     4.66002   1.7373    0.93968 
 N                     7.28168   5.31876   2.22309 
 O                     6.34098   5.76304   2.87756 
 O                     8.38882   5.84409   2.12863 
 
 ITRead=  0  0  0  0  0  0  0  0  0  0  0  0  0  0  0  0  0  0  0  0
 ITRead=  0  0  0  0  0  0  0  0
 MicOpt= -1 -1 -1 -1 -1 -1 -1 -1 -1 -1 -1 -1 -1 -1 -1 -1 -1 -1 -1 -1
 MicOpt= -1 -1 -1 -1 -1 -1 -1 -1
 NAtoms=     28 NQM=       28 NQMF=       0 NMMI=      0 NMMIF=      0
                NMic=       0 NMicF=      0.
                    Isotopes and Nuclear Properties:
 (Nuclear quadrupole moments (NQMom) in fm**2, nuclear magnetic moments (NMagM)
  in nuclear magnetons)

  Atom         1           2           3           4           5           6           7           8           9          10
 IAtWgt=          12          12          12          12          12          12           1           1           1           1
 AtmWgt=  12.0000000  12.0000000  12.0000000  12.0000000  12.0000000  12.0000000   1.0078250   1.0078250   1.0078250   1.0078250
 NucSpn=           0           0           0           0           0           0           1           1           1           1
 AtZEff=  -0.0000000  -0.0000000  -0.0000000  -0.0000000  -0.0000000  -0.0000000  -0.0000000  -0.0000000  -0.0000000  -0.0000000
 NQMom=    0.0000000   0.0000000   0.0000000   0.0000000   0.0000000   0.0000000   0.0000000   0.0000000   0.0000000   0.0000000
 NMagM=    0.0000000   0.0000000   0.0000000   0.0000000   0.0000000   0.0000000   2.7928460   2.7928460   2.7928460   2.7928460
 AtZNuc=   6.0000000   6.0000000   6.0000000   6.0000000   6.0000000   6.0000000   1.0000000   1.0000000   1.0000000   1.0000000

  Atom        11          12          13          14          15          16          17          18          19          20
 IAtWgt=           1          14          16          16          12          12          12          12          12          12
 AtmWgt=   1.0078250  14.0030740  15.9949146  15.9949146  12.0000000  12.0000000  12.0000000  12.0000000  12.0000000  12.0000000
 NucSpn=           1           2           0           0           0           0           0           0           0           0
 AtZEff=  -0.0000000  -0.0000000  -0.0000000  -0.0000000  -0.0000000  -0.0000000  -0.0000000  -0.0000000  -0.0000000  -0.0000000
 NQMom=    0.0000000   2.0440000   0.0000000   0.0000000   0.0000000   0.0000000   0.0000000   0.0000000   0.0000000   0.0000000
 NMagM=    2.7928460   0.4037610   0.0000000   0.0000000   0.0000000   0.0000000   0.0000000   0.0000000   0.0000000   0.0000000
 AtZNuc=   1.0000000   7.0000000   8.0000000   8.0000000   6.0000000   6.0000000   6.0000000   6.0000000   6.0000000   6.0000000

  Atom        21          22          23          24          25          26          27          28
 IAtWgt=           1           1           1           1           1          14          16          16
 AtmWgt=   1.0078250   1.0078250   1.0078250   1.0078250   1.0078250  14.0030740  15.9949146  15.9949146
 NucSpn=           1           1           1           1           1           2           0           0
 AtZEff=  -0.0000000  -0.0000000  -0.0000000  -0.0000000  -0.0000000  -0.0000000  -0.0000000  -0.0000000
 NQMom=    0.0000000   0.0000000   0.0000000   0.0000000   0.0000000   2.0440000   0.0000000   0.0000000
 NMagM=    2.7928460   2.7928460   2.7928460   2.7928460   2.7928460   0.4037610   0.0000000   0.0000000
 AtZNuc=   1.0000000   1.0000000   1.0000000   1.0000000   1.0000000   7.0000000   8.0000000   8.0000000
 Leave Link  101 at Fri May  7 09:38:30 2021, MaxMem=   524288000 cpu:               0.4 elap:               0.2
 (Enter /opt/gaussian/g16_legacy/l202.exe)
                          Input orientation:                          
 ---------------------------------------------------------------------
 Center     Atomic      Atomic             Coordinates (Angstroms)
 Number     Number       Type             X           Y           Z
 ---------------------------------------------------------------------
      1          6           0        1.914143    0.000000    0.000000
      2          6           0        1.214143    1.211000    0.000000
      3          6           0       -0.183857    1.223000    0.000000
      4          6           0       -0.852857    0.000000    0.000000
      5          6           0       -0.183857   -1.223000    0.000000
      6          6           0        1.214143   -1.211000    0.000000
      7          1           0        3.000143    0.000000    0.000000
      8          1           0        1.755143    2.153000    0.000000
      9          1           0       -0.750857    2.146000    0.000000
     10          1           0       -0.750857   -2.146000    0.000000
     11          1           0        1.755143   -2.153000    0.000000
     12          7           0       -2.332857    0.000000    0.000000
     13          8           0       -2.898857   -1.091000    0.000000
     14          8           0       -2.898857    1.091000    0.000000
     15          6           0        6.657275    1.681078    0.122049
     16          6           0        7.896735    2.325631    0.052696
     17          6           0        8.113536    3.523507    0.740183
     18          6           0        7.064089    4.051099    1.490914
     19          6           0        5.817924    3.432653    1.579722
     20          6           0        5.623647    2.235668    0.883997
     21          1           0        6.497607    0.750885   -0.415207
     22          1           0        8.701278    1.897237   -0.538264
     23          1           0        9.063150    4.043444    0.703884
     24          1           0        5.035035    3.884022    2.177023
     25          1           0        4.660024    1.737295    0.939680
     26          7           0        7.281684    5.318765    2.223086
     27          8           0        6.340977    5.763037    2.877555
     28          8           0        8.388821    5.844085    2.128629
 ---------------------------------------------------------------------
                    Distance matrix (angstroms):
                    1          2          3          4          5
     1  C    0.000000
     2  C    1.398757   0.000000
     3  C    2.428443   1.398052   0.000000
     4  C    2.767000   2.395623   1.394019   0.000000
     5  C    2.428443   2.806913   2.446000   1.394019   0.000000
     6  C    1.398757   2.422000   2.806913   2.395623   1.398052
     7  H    1.086000   2.157850   3.410804   3.853000   3.410804
     8  H    2.158863   1.086299   2.150493   3.381874   3.893212
     9  H    3.421628   2.176109   1.083244   2.148423   3.416380
    10  H    3.421628   3.889817   3.416380   2.148423   1.083244
    11  H    2.158863   3.407224   3.893212   3.381874   2.150493
    12  N    4.247000   3.748030   2.472636   1.480000   2.472636
    13  O    4.935104   4.713382   3.567327   2.318706   2.718207
    14  O    4.935104   4.114750   2.718207   2.318706   3.567327
    15  C    5.033708   5.464756   6.857537   7.696948   7.433011
    16  C    6.418936   6.775117   8.155645   9.053546   8.825618
    17  C    7.169062   7.314177   8.642160   9.662255   9.587697
    18  C    6.719834   6.671646   7.921723   9.017331   9.086895
    19  C    5.433059   5.350333   6.587827   7.666678   7.758350
    20  C    4.420416   4.612496   5.961044   6.908311   6.816960
    21  H    4.663086   5.319689   6.710980   7.400375   6.979297
    22  H    7.067845   7.537761   8.926923   9.755549   9.432456
    23  H    8.243373   8.374073   9.693167  10.731826  10.664803
    24  H    5.437373   5.146231   6.249584   7.381892   7.619576
    25  H    3.382463   3.610274   4.960915   5.856027   5.754088
    26  N    7.876666   7.657082   8.800665   9.970062  10.172075
    27  O    7.815995   7.435442   8.453740   9.656302   9.982910
    28  O    8.978076   8.801849   9.968766  11.139704  11.312186
                    6          7          8          9         10
     6  C    0.000000
     7  H    2.157850   0.000000
     8  H    3.407224   2.487053   0.000000
     9  H    3.889817   4.321495   2.506010   0.000000
    10  H    2.176109   4.321495   4.976087   4.292000   0.000000
    11  H    1.086299   2.487053   4.306000   4.976087   2.506010
    12  N    3.748030   5.333000   4.620298   2.666091   2.666091
    13  O    4.114750   5.999040   5.673028   3.884852   2.393100
    14  O    4.713382   5.999040   4.773632   2.393100   3.884852
    15  C    6.164957   4.026852   4.926307   7.423710   8.339175
    16  C    7.560924   5.421065   6.144244   8.649618   9.735456
    17  C    8.400301   6.253780   6.546398   9.001270  10.548395
    18  C    8.008394   5.928734   5.831853   8.180807  10.084654
    19  C    6.727097   4.713652   4.543041   6.877491   8.761608
    20  C    5.666101   3.558432   3.969081   6.436132   7.785549
    21  H    5.651228   3.601178   4.962790   7.393171   7.816941
    22  H    8.124534   6.032593   6.971652   9.470716  10.294676
    23  H    9.471618   7.321540   7.581306  10.020503  11.624087
    24  H    6.730371   4.895492   4.300414   6.421580   8.635806
    25  H    4.631365   2.579999   3.081257   5.507057   6.726114
    26  N    9.186675   7.180736   6.745875   8.917974  11.188679
    27  O    9.121510   7.256314   6.507116   8.465069  11.005785
    28  O   10.285003   8.229352   7.884215  10.086655  12.325025
                   11         12         13         14         15
    11  H    0.000000
    12  N    4.620298   0.000000
    13  O    4.773632   1.229080   0.000000
    14  O    5.673028   1.229080   2.182000   0.000000
    15  C    6.224624   9.146770   9.950828   9.575111   0.000000
    16  C    7.601320  10.490753  11.323469  10.866089   1.398756
    17  C    8.555686  11.049439  11.963041  11.302113   2.428442
    18  C    8.300517  10.341026  11.310362  10.499776   2.767000
    19  C    7.085283   8.984089   9.946921   9.163031   2.428443
    20  C    5.916687   8.311776   9.191368   8.644350   1.398757
    21  H    5.576371   8.872053   9.584283   9.411780   1.086000
    22  H    8.058718  11.208986  11.990931  11.640570   2.158862
    23  H    9.607202  12.112550  13.036394  12.341069   3.421628
    24  H    7.207132   8.608768   9.614412   8.688328   3.421629
    25  H    4.945273   7.266469   8.125204   7.644434   2.158864
    26  N    9.555733  11.210298  12.233994  11.245422   4.247000
    27  O    9.590299  10.804088  11.858865  10.746292   4.935104
    28  O   10.606136  12.395111  13.417829  12.431193   4.935103
                   16         17         18         19         20
    16  C    0.000000
    17  C    1.398051   0.000000
    18  C    2.395623   1.394019   0.000000
    19  C    2.806913   2.446000   1.394019   0.000000
    20  C    2.422000   2.806913   2.395623   1.398052   0.000000
    21  H    2.157850   3.410804   3.853000   3.410805   2.157850
    22  H    1.086299   2.150493   3.381874   3.893212   3.407224
    23  H    2.176109   1.083245   2.148423   3.416380   3.889817
    24  H    3.889817   3.416379   2.148423   1.083244   2.176109
    25  H    3.407224   3.893212   3.381875   2.150494   1.086299
    26  N    3.748030   2.472636   1.480000   2.472636   3.748031
    27  O    4.713382   3.567327   2.318706   2.718206   4.114750
    28  O    4.114750   2.718206   2.318705   3.567326   4.713382
                   21         22         23         24         25
    21  H    0.000000
    22  H    2.487053   0.000000
    23  H    4.321495   2.506010   0.000000
    24  H    4.321495   4.976086   4.292000   0.000000
    25  H    2.487053   4.306000   4.976087   2.506010   0.000000
    26  N    5.333001   4.620298   2.666091   2.666091   4.620299
    27  O    5.999040   5.673028   3.884852   2.393100   4.773632
    28  O    5.999040   4.773631   2.393100   3.884851   5.673028
                   26         27         28
    26  N    0.000000
    27  O    1.229080   0.000000
    28  O    1.229079   2.182000   0.000000
 Stoichiometry    C12H10N2O4
 Framework group  C1[X(C12H10N2O4)]
 Deg. of freedom    78
 Full point group                 C1      NOp   1
 Largest Abelian subgroup         C1      NOp   1
 Largest concise Abelian subgroup C1      NOp   1
                         Standard orientation:                         
 ---------------------------------------------------------------------
 Center     Atomic      Atomic             Coordinates (Angstroms)
 Number     Number       Type             X           Y           Z
 ---------------------------------------------------------------------
      1          6           0       -2.107206    1.177536   -0.106685
      2          6           0       -2.181969   -0.113515    0.426344
      3          6           0       -3.407724   -0.781999    0.498468
      4          6           0       -4.543913   -0.126716    0.026271
      5          6           0       -4.501817    1.159246   -0.510217
      6          6           0       -3.265327    1.808683   -0.572443
      7          1           0       -1.150841    1.689432   -0.158868
      8          1           0       -1.284192   -0.606119    0.788812
      9          1           0       -3.494185   -1.781790    0.906340
     10          1           0       -5.413992    1.624515   -0.863600
     11          1           0       -3.210261    2.811298   -0.986902
     12          7           0       -5.847247   -0.824328    0.097387
     13          8           0       -6.833687   -0.225256   -0.325324
     14          8           0       -5.857681   -1.956980    0.574491
     15          6           0        2.840757    2.032138    0.247615
     16          6           0        4.209736    2.131503    0.516953
     17          6           0        5.043883    1.018570    0.375081
     18          6           0        4.472996   -0.183583   -0.039896
     19          6           0        3.112830   -0.314311   -0.315845
     20          6           0        2.297630    0.811700   -0.167193
     21          1           0        2.200131    2.901771    0.360458
     22          1           0        4.634287    3.078035    0.839254
     23          1           0        6.107038    1.067499    0.576886
     24          1           0        2.718615   -1.271309   -0.635481
     25          1           0        1.234812    0.731598   -0.377067
     26          7           0        5.346041   -1.368718   -0.193679
     27          8           0        4.818605   -2.416462   -0.560666
     28          8           0        6.541237   -1.227441    0.055686
 ---------------------------------------------------------------------
 Rotational constants (GHZ):           1.0185149           0.0953684           0.0883362
 Leave Link  202 at Fri May  7 09:38:31 2021, MaxMem=   524288000 cpu:               0.1 elap:               0.2
 (Enter /opt/gaussian/g16_legacy/l301.exe)
 Standard basis: 6-31G(d) (6D, 7F)
 Ernie: Thresh=  0.10000D-02 Tol=  0.10000D-05 Strict=F.
 There are   290 symmetry adapted cartesian basis functions of A   symmetry.
 There are   290 symmetry adapted basis functions of A   symmetry.
   290 basis functions,   544 primitive gaussians,   290 cartesian basis functions
    64 alpha electrons       64 beta electrons
       nuclear repulsion energy      1083.1004055920 Hartrees.
 IExCor=    0 DFT=F Ex=HF Corr=None ExCW=0 ScaHFX=  1.000000
 ScaDFX=  1.000000  1.000000  1.000000  1.000000 ScalE2=  1.000000  1.000000
 IRadAn=      5 IRanWt=     -1 IRanGd=            0 ICorTp=0 IEmpDi=  4
 NAtoms=   28 NActive=   28 NUniq=   28 SFac= 1.00D+00 NAtFMM=   60 NAOKFM=F Big=F
 Integral buffers will be    131072 words long.
 Raffenetti 1 integral format.
 Two-electron integral symmetry is turned on.
 Leave Link  301 at Fri May  7 09:38:31 2021, MaxMem=   524288000 cpu:               0.3 elap:               0.2
 (Enter /opt/gaussian/g16_legacy/l302.exe)
 NPDir=0 NMtPBC=     1 NCelOv=     1 NCel=       1 NClECP=     1 NCelD=      1
         NCelK=      1 NCelE2=     1 NClLst=     1 CellRange=     0.0.
 One-electron integrals computed using PRISM.
 One-electron integral symmetry used in STVInt
 NBasis=   290 RedAO= T EigKep=  4.73D-04  NBF=   290
 NBsUse=   290 1.00D-06 EigRej= -1.00D+00 NBFU=   290
 Leave Link  302 at Fri May  7 09:38:32 2021, MaxMem=   524288000 cpu:               0.9 elap:               0.7
 (Enter /opt/gaussian/g16_legacy/l303.exe)
 DipDrv:  MaxL=1.
 Leave Link  303 at Fri May  7 09:38:32 2021, MaxMem=   524288000 cpu:               0.2 elap:               0.1
 (Enter /opt/gaussian/g16_legacy/l401.exe)
 ExpMin= 1.61D-01 ExpMax= 5.48D+03 ExpMxC= 8.25D+02 IAcc=3 IRadAn=         5 AccDes= 0.00D+00
 Harris functional with IExCor=  205 and IRadAn=       5 diagonalized for initial guess.
 HarFok:  IExCor=  205 AccDes= 0.00D+00 IRadAn=         5 IDoV= 1 UseB2=F ITyADJ=14
 ICtDFT=  3500011 ScaDFX=  1.000000  1.000000  1.000000  1.000000
 FoFCou: FMM=F IPFlag=           0 FMFlag=      100000 FMFlg1=           0
         NFxFlg=           0 DoJE=T BraDBF=F KetDBF=T FulRan=T
         wScrn=  0.000000 ICntrl=       500 IOpCl=  0 I1Cent=   200000004 NGrid=           0
         NMat0=    1 NMatS0=      1 NMatT0=    0 NMatD0=    1 NMtDS0=    0 NMtDT0=    0
 Petite list used in FoFCou.
 Harris En= -869.211965821191    
 JPrj=0 DoOrth=F DoCkMO=F.
 Leave Link  401 at Fri May  7 09:38:39 2021, MaxMem=   524288000 cpu:              12.8 elap:               7.1
 (Enter /opt/gaussian/g16_legacy/l502.exe)
 Integral symmetry usage will be decided dynamically.
 Closed shell SCF:
 Using DIIS extrapolation, IDIIS=  1040.
 NGot=   524288000 LenX=   524114954 LenY=   524030413
 Requested convergence on RMS density matrix=1.00D-08 within 128 cycles.
 Requested convergence on MAX density matrix=1.00D-06.
 Requested convergence on             energy=1.00D-06.
 No special actions if energy rises.
 Fock matrices will be formed incrementally for  20 cycles.
 Integral accuracy reduced to 1.0D-05 until final iterations.

 Cycle   1  Pass 0  IDiag  1:
 FoFJK:  IHMeth= 1 ICntrl=       0 DoSepK=F KAlg= 0 I1Cent=           0 FoldK=F
 IRaf= 640000000 NMat=       1 IRICut=       1 DoRegI=T DoRafI=F ISym2E= 0 IDoP0=0 IntGTp=1.
 FoFCou: FMM=F IPFlag=           0 FMFlag=      100000 FMFlg1=           0
         NFxFlg=           0 DoJE=F BraDBF=F KetDBF=F FulRan=T
         wScrn=  0.000000 ICntrl=         0 IOpCl=  0 I1Cent=           0 NGrid=           0
         NMat0=    1 NMatS0=      1 NMatT0=    0 NMatD0=    1 NMtDS0=    0 NMtDT0=    0
 Symmetry not used in FoFCou.
 E= -867.608370845011    
 DIIS: error= 6.40D-02 at cycle   1 NSaved=   1.
 NSaved= 1 IEnMin= 1 EnMin= -867.608370845011     IErMin= 1 ErrMin= 6.40D-02
 ErrMax= 6.40D-02  0.00D+00 EMaxC= 1.00D-01 BMatC= 1.28D+00 BMatP= 1.28D+00
 IDIUse=3 WtCom= 3.60D-01 WtEn= 6.40D-01
 Coeff-Com:  0.100D+01
 Coeff-En:   0.100D+01
 Coeff:      0.100D+01
 Gap=     0.553 Goal=   None    Shift=    0.000
 GapD=    0.553 DampG=2.000 DampE=0.500 DampFc=1.0000 IDamp=-1.
 RMSDP=4.45D-03 MaxDP=8.77D-02              OVMax= 1.49D-01

 Cycle   2  Pass 0  IDiag  1:
 RMSU=  4.34D-03    CP:  9.52D-01
 E= -868.119764720848     Delta-E=       -0.511393875837 Rises=F Damp=F
 DIIS: error= 3.55D-02 at cycle   2 NSaved=   2.
 NSaved= 2 IEnMin= 2 EnMin= -868.119764720848     IErMin= 2 ErrMin= 3.55D-02
 ErrMax= 3.55D-02  0.00D+00 EMaxC= 1.00D-01 BMatC= 2.88D-01 BMatP= 1.28D+00
 IDIUse=3 WtCom= 6.45D-01 WtEn= 3.55D-01
 Coeff-Com:  0.267D+00 0.733D+00
 Coeff-En:   0.000D+00 0.100D+01
 Coeff:      0.172D+00 0.828D+00
 Gap=     0.476 Goal=   None    Shift=    0.000
 RMSDP=1.86D-03 MaxDP=8.59D-02 DE=-5.11D-01 OVMax= 1.23D-01

 Cycle   3  Pass 0  IDiag  1:
 RMSU=  1.65D-03    CP:  9.54D-01  8.00D-01
 E= -868.284346687500     Delta-E=       -0.164581966652 Rises=F Damp=F
 DIIS: error= 1.83D-02 at cycle   3 NSaved=   3.
 NSaved= 3 IEnMin= 3 EnMin= -868.284346687500     IErMin= 3 ErrMin= 1.83D-02
 ErrMax= 1.83D-02  0.00D+00 EMaxC= 1.00D-01 BMatC= 6.96D-02 BMatP= 2.88D-01
 IDIUse=3 WtCom= 8.17D-01 WtEn= 1.83D-01
 Coeff-Com: -0.224D-01 0.313D+00 0.710D+00
 Coeff-En:   0.000D+00 0.838D-01 0.916D+00
 Coeff:     -0.183D-01 0.271D+00 0.747D+00
 Gap=     0.428 Goal=   None    Shift=    0.000
 RMSDP=7.00D-04 MaxDP=2.97D-02 DE=-1.65D-01 OVMax= 4.68D-02

 Cycle   4  Pass 0  IDiag  1:
 RMSU=  3.87D-04    CP:  9.53D-01  8.98D-01  7.59D-01
 E= -868.333638145454     Delta-E=       -0.049291457954 Rises=F Damp=F
 DIIS: error= 3.74D-03 at cycle   4 NSaved=   4.
 NSaved= 4 IEnMin= 4 EnMin= -868.333638145454     IErMin= 4 ErrMin= 3.74D-03
 ErrMax= 3.74D-03  0.00D+00 EMaxC= 1.00D-01 BMatC= 2.72D-03 BMatP= 6.96D-02
 IDIUse=3 WtCom= 9.63D-01 WtEn= 3.74D-02
 Coeff-Com: -0.124D-01 0.489D-01 0.242D+00 0.722D+00
 Coeff-En:   0.000D+00 0.000D+00 0.000D+00 0.100D+01
 Coeff:     -0.120D-01 0.471D-01 0.233D+00 0.732D+00
 Gap=     0.412 Goal=   None    Shift=    0.000
 RMSDP=1.72D-04 MaxDP=6.45D-03 DE=-4.93D-02 OVMax= 1.01D-02

 Cycle   5  Pass 0  IDiag  1:
 RMSU=  1.12D-04    CP:  9.53D-01  9.00D-01  8.26D-01  8.24D-01
 E= -868.335976654659     Delta-E=       -0.002338509205 Rises=F Damp=F
 DIIS: error= 4.74D-04 at cycle   5 NSaved=   5.
 NSaved= 5 IEnMin= 5 EnMin= -868.335976654659     IErMin= 5 ErrMin= 4.74D-04
 ErrMax= 4.74D-04  0.00D+00 EMaxC= 1.00D-01 BMatC= 8.54D-05 BMatP= 2.72D-03
 IDIUse=3 WtCom= 9.95D-01 WtEn= 4.74D-03
 Coeff-Com:  0.195D-02-0.243D-01-0.634D-01 0.161D-01 0.107D+01
 Coeff-En:   0.000D+00 0.000D+00 0.000D+00 0.000D+00 0.100D+01
 Coeff:      0.194D-02-0.242D-01-0.631D-01 0.161D-01 0.107D+01
 Gap=     0.414 Goal=   None    Shift=    0.000
 RMSDP=5.86D-05 MaxDP=1.78D-03 DE=-2.34D-03 OVMax= 4.51D-03

 Cycle   6  Pass 0  IDiag  1:
 RMSU=  2.86D-05    CP:  9.52D-01  9.04D-01  8.36D-01  9.23D-01  1.21D+00
 E= -868.336146746335     Delta-E=       -0.000170091676 Rises=F Damp=F
 DIIS: error= 2.96D-04 at cycle   6 NSaved=   6.
 NSaved= 6 IEnMin= 6 EnMin= -868.336146746335     IErMin= 6 ErrMin= 2.96D-04
 ErrMax= 2.96D-04  0.00D+00 EMaxC= 1.00D-01 BMatC= 1.03D-05 BMatP= 8.54D-05
 IDIUse=3 WtCom= 9.97D-01 WtEn= 2.96D-03
 Coeff-Com:  0.129D-02-0.793D-02-0.310D-01-0.603D-01 0.941D-01 0.100D+01
 Coeff-En:   0.000D+00 0.000D+00 0.000D+00 0.000D+00 0.000D+00 0.100D+01
 Coeff:      0.129D-02-0.791D-02-0.309D-01-0.601D-01 0.938D-01 0.100D+01
 Gap=     0.414 Goal=   None    Shift=    0.000
 RMSDP=2.26D-05 MaxDP=5.83D-04 DE=-1.70D-04 OVMax= 1.84D-03

 Cycle   7  Pass 0  IDiag  1:
 RMSU=  1.09D-05    CP:  9.52D-01  9.05D-01  8.39D-01  9.43D-01  1.35D+00
                    CP:  1.25D+00
 E= -868.336176377344     Delta-E=       -0.000029631009 Rises=F Damp=F
 DIIS: error= 1.36D-04 at cycle   7 NSaved=   7.
 NSaved= 7 IEnMin= 7 EnMin= -868.336176377344     IErMin= 7 ErrMin= 1.36D-04
 ErrMax= 1.36D-04  0.00D+00 EMaxC= 1.00D-01 BMatC= 2.07D-06 BMatP= 1.03D-05
 IDIUse=3 WtCom= 9.99D-01 WtEn= 1.36D-03
 Coeff-Com: -0.170D-03 0.272D-02 0.654D-02-0.286D-02-0.147D+00 0.481D-01
 Coeff-Com:  0.109D+01
 Coeff-En:   0.000D+00 0.000D+00 0.000D+00 0.000D+00 0.000D+00 0.000D+00
 Coeff-En:   0.100D+01
 Coeff:     -0.170D-03 0.271D-02 0.653D-02-0.286D-02-0.147D+00 0.480D-01
 Coeff:      0.109D+01
 Gap=     0.414 Goal=   None    Shift=    0.000
 RMSDP=1.10D-05 MaxDP=4.72D-04 DE=-2.96D-05 OVMax= 1.33D-03

 Cycle   8  Pass 0  IDiag  1:
 RMSU=  5.49D-06    CP:  9.52D-01  9.05D-01  8.39D-01  9.50D-01  1.39D+00
                    CP:  1.49D+00  1.34D+00
 E= -868.336184664068     Delta-E=       -0.000008286724 Rises=F Damp=F
 DIIS: error= 9.11D-05 at cycle   8 NSaved=   8.
 NSaved= 8 IEnMin= 8 EnMin= -868.336184664068     IErMin= 8 ErrMin= 9.11D-05
 ErrMax= 9.11D-05  0.00D+00 EMaxC= 1.00D-01 BMatC= 5.18D-07 BMatP= 2.07D-06
 IDIUse=1 WtCom= 1.00D+00 WtEn= 0.00D+00
 Coeff-Com: -0.316D-03 0.216D-02 0.809D-02 0.155D-01-0.321D-01-0.239D+00
 Coeff-Com:  0.431D-01 0.120D+01
 Coeff:     -0.316D-03 0.216D-02 0.809D-02 0.155D-01-0.321D-01-0.239D+00
 Coeff:      0.431D-01 0.120D+01
 Gap=     0.414 Goal=   None    Shift=    0.000
 RMSDP=7.08D-06 MaxDP=2.09D-04 DE=-8.29D-06 OVMax= 8.24D-04

 Initial convergence to 1.0D-05 achieved.  Increase integral accuracy.
 Cycle   9  Pass 1  IDiag  1:
 E= -868.336182805766     Delta-E=        0.000001858303 Rises=F Damp=F
 DIIS: error= 2.57D-05 at cycle   1 NSaved=   1.
 NSaved= 1 IEnMin= 1 EnMin= -868.336182805766     IErMin= 1 ErrMin= 2.57D-05
 ErrMax= 2.57D-05  0.00D+00 EMaxC= 1.00D-01 BMatC= 1.78D-07 BMatP= 1.78D-07
 IDIUse=1 WtCom= 1.00D+00 WtEn= 0.00D+00
 Coeff-Com:  0.100D+01
 Coeff:      0.100D+01
 Gap=     0.414 Goal=   None    Shift=    0.000
 RMSDP=7.08D-06 MaxDP=2.09D-04 DE= 1.86D-06 OVMax= 2.28D-04

 Cycle  10  Pass 1  IDiag  1:
 RMSU=  9.40D-06    CP:  1.00D+00
 E= -868.336183153457     Delta-E=       -0.000000347692 Rises=F Damp=F
 DIIS: error= 2.37D-05 at cycle   2 NSaved=   2.
 NSaved= 2 IEnMin= 2 EnMin= -868.336183153457     IErMin= 2 ErrMin= 2.37D-05
 ErrMax= 2.37D-05  0.00D+00 EMaxC= 1.00D-01 BMatC= 3.32D-08 BMatP= 1.78D-07
 IDIUse=1 WtCom= 1.00D+00 WtEn= 0.00D+00
 Coeff-Com: -0.102D-01 0.101D+01
 Coeff:     -0.102D-01 0.101D+01
 Gap=     0.414 Goal=   None    Shift=    0.000
 RMSDP=1.24D-06 MaxDP=3.59D-05 DE=-3.48D-07 OVMax= 1.38D-04

 Cycle  11  Pass 1  IDiag  1:
 RMSU=  1.12D-06    CP:  1.00D+00  1.05D+00
 E= -868.336183272476     Delta-E=       -0.000000119018 Rises=F Damp=F
 DIIS: error= 1.18D-05 at cycle   3 NSaved=   3.
 NSaved= 3 IEnMin= 3 EnMin= -868.336183272476     IErMin= 3 ErrMin= 1.18D-05
 ErrMax= 1.18D-05  0.00D+00 EMaxC= 1.00D-01 BMatC= 1.54D-08 BMatP= 3.32D-08
 IDIUse=1 WtCom= 1.00D+00 WtEn= 0.00D+00
 Coeff-Com: -0.147D+00 0.161D+00 0.986D+00
 Coeff:     -0.147D+00 0.161D+00 0.986D+00
 Gap=     0.414 Goal=   None    Shift=    0.000
 RMSDP=8.80D-07 MaxDP=2.78D-05 DE=-1.19D-07 OVMax= 1.13D-04

 Cycle  12  Pass 1  IDiag  1:
 RMSU=  6.09D-07    CP:  1.00D+00  1.08D+00  1.52D+00
 E= -868.336183332498     Delta-E=       -0.000000060022 Rises=F Damp=F
 DIIS: error= 8.78D-06 at cycle   4 NSaved=   4.
 NSaved= 4 IEnMin= 4 EnMin= -868.336183332498     IErMin= 4 ErrMin= 8.78D-06
 ErrMax= 8.78D-06  0.00D+00 EMaxC= 1.00D-01 BMatC= 5.00D-09 BMatP= 1.54D-08
 IDIUse=1 WtCom= 1.00D+00 WtEn= 0.00D+00
 Coeff-Com: -0.514D-02-0.504D+00 0.656D-01 0.144D+01
 Coeff:     -0.514D-02-0.504D+00 0.656D-01 0.144D+01
 Gap=     0.414 Goal=   None    Shift=    0.000
 RMSDP=9.82D-07 MaxDP=2.75D-05 DE=-6.00D-08 OVMax= 1.14D-04

 Cycle  13  Pass 1  IDiag  1:
 RMSU=  2.06D-07    CP:  1.00D+00  1.09D+00  2.31D+00  1.59D+00
 E= -868.336183362905     Delta-E=       -0.000000030408 Rises=F Damp=F
 DIIS: error= 1.61D-06 at cycle   5 NSaved=   5.
 NSaved= 5 IEnMin= 5 EnMin= -868.336183362905     IErMin= 5 ErrMin= 1.61D-06
 ErrMax= 1.61D-06  0.00D+00 EMaxC= 1.00D-01 BMatC= 5.19D-10 BMatP= 5.00D-09
 IDIUse=1 WtCom= 1.00D+00 WtEn= 0.00D+00
 Coeff-Com:  0.142D-01-0.202D+00-0.767D-01 0.513D+00 0.752D+00
 Coeff:      0.142D-01-0.202D+00-0.767D-01 0.513D+00 0.752D+00
 Gap=     0.414 Goal=   None    Shift=    0.000
 RMSDP=1.67D-07 MaxDP=4.82D-06 DE=-3.04D-08 OVMax= 1.89D-05

 Cycle  14  Pass 1  IDiag  1:
 RMSU=  7.55D-08    CP:  1.00D+00  1.09D+00  2.42D+00  1.70D+00  1.06D+00
 E= -868.336183364101     Delta-E=       -0.000000001196 Rises=F Damp=F
 DIIS: error= 3.38D-07 at cycle   6 NSaved=   6.
 NSaved= 6 IEnMin= 6 EnMin= -868.336183364101     IErMin= 6 ErrMin= 3.38D-07
 ErrMax= 3.38D-07  0.00D+00 EMaxC= 1.00D-01 BMatC= 4.33D-11 BMatP= 5.19D-10
 IDIUse=1 WtCom= 1.00D+00 WtEn= 0.00D+00
 Coeff-Com:  0.517D-03 0.616D-01-0.491D-02-0.178D+00-0.364D-02 0.112D+01
 Coeff:      0.517D-03 0.616D-01-0.491D-02-0.178D+00-0.364D-02 0.112D+01
 Gap=     0.414 Goal=   None    Shift=    0.000
 RMSDP=5.27D-08 MaxDP=2.01D-06 DE=-1.20D-09 OVMax= 5.13D-06

 Cycle  15  Pass 1  IDiag  1:
 RMSU=  2.73D-08    CP:  1.00D+00  1.09D+00  2.43D+00  1.73D+00  1.24D+00
                    CP:  1.26D+00
 E= -868.336183364179     Delta-E=       -0.000000000078 Rises=F Damp=F
 DIIS: error= 1.99D-07 at cycle   7 NSaved=   7.
 NSaved= 7 IEnMin= 7 EnMin= -868.336183364179     IErMin= 7 ErrMin= 1.99D-07
 ErrMax= 1.99D-07  0.00D+00 EMaxC= 1.00D-01 BMatC= 7.94D-12 BMatP= 4.33D-11
 IDIUse=1 WtCom= 1.00D+00 WtEn= 0.00D+00
 Coeff-Com: -0.267D-02 0.574D-01 0.136D-01-0.151D+00-0.146D+00 0.317D+00
 Coeff-Com:  0.912D+00
 Coeff:     -0.267D-02 0.574D-01 0.136D-01-0.151D+00-0.146D+00 0.317D+00
 Coeff:      0.912D+00
 Gap=     0.414 Goal=   None    Shift=    0.000
 RMSDP=2.16D-08 MaxDP=6.84D-07 DE=-7.78D-11 OVMax= 1.29D-06

 Cycle  16  Pass 1  IDiag  1:
 RMSU=  9.41D-09    CP:  1.00D+00  1.09D+00  2.43D+00  1.73D+00  1.29D+00
                    CP:  1.45D+00  1.18D+00
 E= -868.336183364197     Delta-E=       -0.000000000018 Rises=F Damp=F
 DIIS: error= 3.83D-08 at cycle   8 NSaved=   8.
 NSaved= 8 IEnMin= 8 EnMin= -868.336183364197     IErMin= 8 ErrMin= 3.83D-08
 ErrMax= 3.83D-08  0.00D+00 EMaxC= 1.00D-01 BMatC= 3.61D-13 BMatP= 7.94D-12
 IDIUse=1 WtCom= 1.00D+00 WtEn= 0.00D+00
 Coeff-Com: -0.728D-03 0.125D-01 0.360D-02-0.323D-01-0.383D-01 0.400D-01
 Coeff-Com:  0.243D+00 0.772D+00
 Coeff:     -0.728D-03 0.125D-01 0.360D-02-0.323D-01-0.383D-01 0.400D-01
 Coeff:      0.243D+00 0.772D+00
 Gap=     0.414 Goal=   None    Shift=    0.000
 RMSDP=2.69D-09 MaxDP=8.96D-08 DE=-1.84D-11 OVMax= 2.11D-07

 SCF Done:  E(RHF) =  -868.336183364     A.U. after   16 cycles
            NFock= 16  Conv=0.27D-08     -V/T= 2.0031
 KE= 8.656897764401D+02 PE=-4.198412794471D+03 EE= 1.381286429075D+03
 Leave Link  502 at Fri May  7 09:39:44 2021, MaxMem=   524288000 cpu:             126.0 elap:              64.7
 (Enter /opt/gaussian/g16_legacy/l801.exe)
 ExpMin= 1.61D-01 ExpMax= 5.48D+03 ExpMxC= 8.25D+02 IAcc=3 IRadAn=         5 AccDes= 0.00D+00
 HarFok:  IExCor=  205 AccDes= 0.00D+00 IRadAn=         5 IDoV=-2 UseB2=F ITyADJ=14
 ICtDFT= 12500011 ScaDFX=  1.000000  1.000000  1.000000  1.000000
 Largest valence mixing into a core orbital is  1.95D-04
 Largest core mixing into a valence orbital is  4.00D-05
 Range of M.O.s used for correlation:    19   290
 NBasis=   290 NAE=    64 NBE=    64 NFC=    18 NFV=     0
 NROrb=    272 NOA=    46 NOB=    46 NVA=   226 NVB=   226
 Leave Link  801 at Fri May  7 09:39:46 2021, MaxMem=   524288000 cpu:               2.0 elap:               1.3
 (Enter /opt/gaussian/g16_legacy/l906.exe)
 FulOut=F Deriv=F AODrv=F NAtomX=    28
   MMem=          85  MDisk=          46 MDiskD=          46
  W3Min=     3014840 MinDsk=     3114491 NBas6D=         290
 NBas2D=       42681    NTT=       42195    LW2=     2000000
    MDV=   523953170 MDiskM=       24997 NBas2p=       25309
 Fully direct method using O(OVN) memory.
 IMap=   1   2   3   4   5   6   7   8   9  10  11  12  13  14  15  16  17  18  19  20
 IMap=  21  22  23  24  25  26  27  28  29  30  31  32  33  34  35  36  37  38  39  40
 IMap=  41  42  43  44  45  46
 JobTyp=1 Pass  1:  I=   1 to  46 NPSUse=  2 ParTrn=T ParDer=T DoDerP=F.
 Spin components of T(2) and E(2):
     alpha-alpha T2 =       0.1270088881D+00 E2=     -0.3594832734D+00
     alpha-beta  T2 =       0.6479377913D+00 E2=     -0.1880934011D+01
     beta-beta   T2 =       0.1270088881D+00 E2=     -0.3594832734D+00
 The integrals were generated   1 times.
 ANorm=    0.1379114052D+01
 E2 =    -0.2599900557D+01 EUMP2 =    -0.87093608392169D+03
 Leave Link  906 at Fri May  7 09:41:00 2021, MaxMem=   524288000 cpu:             147.4 elap:              74.7
 (Enter /opt/gaussian/g16_legacy/l601.exe)
 Copying SCF densities to generalized density rwf, IOpCl= 0 IROHF=0.

 **********************************************************************

            Population analysis using the SCF density.

 **********************************************************************

 Orbital symmetries:
       Occupied  (A) (A) (A) (A) (A) (A) (A) (A) (A) (A) (A) (A)
                 (A) (A) (A) (A) (A) (A) (A) (A) (A) (A) (A) (A)
                 (A) (A) (A) (A) (A) (A) (A) (A) (A) (A) (A) (A)
                 (A) (A) (A) (A) (A) (A) (A) (A) (A) (A) (A) (A)
                 (A) (A) (A) (A) (A) (A) (A) (A) (A) (A) (A) (A)
                 (A) (A) (A) (A)
       Virtual   (A) (A) (A) (A) (A) (A) (A) (A) (A) (A) (A) (A)
                 (A) (A) (A) (A) (A) (A) (A) (A) (A) (A) (A) (A)
                 (A) (A) (A) (A) (A) (A) (A) (A) (A) (A) (A) (A)
                 (A) (A) (A) (A) (A) (A) (A) (A) (A) (A) (A) (A)
                 (A) (A) (A) (A) (A) (A) (A) (A) (A) (A) (A) (A)
                 (A) (A) (A) (A) (A) (A) (A) (A) (A) (A) (A) (A)
                 (A) (A) (A) (A) (A) (A) (A) (A) (A) (A) (A) (A)
                 (A) (A) (A) (A) (A) (A) (A) (A) (A) (A) (A) (A)
                 (A) (A) (A) (A) (A) (A) (A) (A) (A) (A) (A) (A)
                 (A) (A) (A) (A) (A) (A) (A) (A) (A) (A) (A) (A)
                 (A) (A) (A) (A) (A) (A) (A) (A) (A) (A) (A) (A)
                 (A) (A) (A) (A) (A) (A) (A) (A) (A) (A) (A) (A)
                 (A) (A) (A) (A) (A) (A) (A) (A) (A) (A) (A) (A)
                 (A) (A) (A) (A) (A) (A) (A) (A) (A) (A) (A) (A)
                 (A) (A) (A) (A) (A) (A) (A) (A) (A) (A) (A) (A)
                 (A) (A) (A) (A) (A) (A) (A) (A) (A) (A) (A) (A)
                 (A) (A) (A) (A) (A) (A) (A) (A) (A) (A) (A) (A)
                 (A) (A) (A) (A) (A) (A) (A) (A) (A) (A) (A) (A)
                 (A) (A) (A) (A) (A) (A) (A) (A) (A) (A)
 The electronic state is 1-A.
 Alpha  occ. eigenvalues --  -20.61364 -20.61357 -20.61243 -20.61237 -15.86425
 Alpha  occ. eigenvalues --  -15.86301 -11.31950 -11.31836 -11.28601 -11.28517
 Alpha  occ. eigenvalues --  -11.28411 -11.28402 -11.28394 -11.28346 -11.27746
 Alpha  occ. eigenvalues --  -11.27558 -11.27546 -11.27506  -1.60435  -1.60314
 Alpha  occ. eigenvalues --   -1.39984  -1.39862  -1.20161  -1.20037  -1.09539
 Alpha  occ. eigenvalues --   -1.09434  -1.05600  -1.05455  -0.96337  -0.96236
 Alpha  occ. eigenvalues --   -0.87011  -0.86862  -0.83173  -0.83050  -0.78187
 Alpha  occ. eigenvalues --   -0.78036  -0.72641  -0.72518  -0.71761  -0.71637
 Alpha  occ. eigenvalues --   -0.71320  -0.71221  -0.65826  -0.65770  -0.65658
 Alpha  occ. eigenvalues --   -0.65404  -0.62964  -0.62770  -0.56169  -0.56044
 Alpha  occ. eigenvalues --   -0.53905  -0.53799  -0.53689  -0.53552  -0.49413
 Alpha  occ. eigenvalues --   -0.49383  -0.49292  -0.49260  -0.45354  -0.45229
 Alpha  occ. eigenvalues --   -0.38161  -0.38074  -0.37197  -0.37041
 Alpha virt. eigenvalues --    0.04376   0.04475   0.10432   0.10570   0.15793
 Alpha virt. eigenvalues --    0.15875   0.17358   0.22079   0.24773   0.25629
 Alpha virt. eigenvalues --    0.27599   0.28986   0.30227   0.30528   0.32041
 Alpha virt. eigenvalues --    0.33524   0.33639   0.35687   0.36220   0.36921
 Alpha virt. eigenvalues --    0.42120   0.42168   0.43637   0.44878   0.45575
 Alpha virt. eigenvalues --    0.45756   0.48764   0.48856   0.50366   0.51740
 Alpha virt. eigenvalues --    0.56091   0.57117   0.66424   0.66901   0.68234
 Alpha virt. eigenvalues --    0.68274   0.69385   0.70257   0.71048   0.71228
 Alpha virt. eigenvalues --    0.76844   0.77005   0.77474   0.77930   0.78007
 Alpha virt. eigenvalues --    0.78313   0.78848   0.79101   0.79211   0.79653
 Alpha virt. eigenvalues --    0.79911   0.80171   0.81256   0.82016   0.84943
 Alpha virt. eigenvalues --    0.85498   0.86884   0.87005   0.87184   0.87370
 Alpha virt. eigenvalues --    0.93021   0.93190   0.95759   0.96022   0.99894
 Alpha virt. eigenvalues --    0.99999   1.01299   1.01443   1.03505   1.03812
 Alpha virt. eigenvalues --    1.05900   1.06280   1.07116   1.07738   1.07870
 Alpha virt. eigenvalues --    1.08191   1.08798   1.11253   1.14054   1.15507
 Alpha virt. eigenvalues --    1.15955   1.16416   1.16603   1.18200   1.19278
 Alpha virt. eigenvalues --    1.22140   1.22593   1.23027   1.23157   1.24530
 Alpha virt. eigenvalues --    1.26722   1.27735   1.27746   1.27894   1.30045
 Alpha virt. eigenvalues --    1.30473   1.30907   1.32829   1.33685   1.34400
 Alpha virt. eigenvalues --    1.39598   1.39695   1.45883   1.46092   1.46248
 Alpha virt. eigenvalues --    1.46420   1.51888   1.52021   1.52687   1.53019
 Alpha virt. eigenvalues --    1.59609   1.59918   1.64762   1.64881   1.65843
 Alpha virt. eigenvalues --    1.65983   1.66283   1.66378   1.67219   1.67661
 Alpha virt. eigenvalues --    1.71804   1.71924   1.72427   1.72519   1.72800
 Alpha virt. eigenvalues --    1.73126   1.74664   1.74797   1.96354   1.96483
 Alpha virt. eigenvalues --    1.98661   1.98789   1.99153   1.99226   2.03513
 Alpha virt. eigenvalues --    2.03795   2.04208   2.04554   2.09498   2.09621
 Alpha virt. eigenvalues --    2.11710   2.11919   2.12409   2.12934   2.20756
 Alpha virt. eigenvalues --    2.21022   2.21150   2.21225   2.24049   2.24181
 Alpha virt. eigenvalues --    2.26338   2.26467   2.32046   2.32616   2.35293
 Alpha virt. eigenvalues --    2.35473   2.36936   2.37092   2.42069   2.42196
 Alpha virt. eigenvalues --    2.42703   2.42834   2.43794   2.43914   2.44935
 Alpha virt. eigenvalues --    2.45059   2.46104   2.46220   2.57288   2.57419
 Alpha virt. eigenvalues --    2.57770   2.57877   2.58716   2.58840   2.69513
 Alpha virt. eigenvalues --    2.69642   2.80634   2.80752   2.82858   2.82981
 Alpha virt. eigenvalues --    2.90493   2.90767   2.91173   2.91290   2.92029
 Alpha virt. eigenvalues --    2.92882   2.99007   2.99317   3.03961   3.04066
 Alpha virt. eigenvalues --    3.04190   3.04380   3.06113   3.06415   3.09966
 Alpha virt. eigenvalues --    3.10164   3.22540   3.23228   3.23932   3.24029
 Alpha virt. eigenvalues --    3.26797   3.27315   3.42463   3.42572   3.52168
 Alpha virt. eigenvalues --    3.52352   3.76166   3.76287   4.12423   4.12529
 Alpha virt. eigenvalues --    4.28042   4.28223   4.37265   4.37418   4.47290
 Alpha virt. eigenvalues --    4.47435   4.49985   4.50032   4.52082   4.52359
 Alpha virt. eigenvalues --    4.71196   4.71401   4.75811   4.76094   5.08123
 Alpha virt. eigenvalues --    5.08229
          Condensed to atoms (all electrons):
               1          2          3          4          5          6
     1  C    4.881891   0.541276  -0.045201  -0.028948  -0.045565   0.542439
     2  C    0.541276   4.935755   0.522664  -0.040072  -0.030125  -0.043026
     3  C   -0.045201   0.522664   4.916263   0.548631  -0.052752  -0.030298
     4  C   -0.028948  -0.040072   0.548631   4.820448   0.548151  -0.039830
     5  C   -0.045565  -0.030125  -0.052752   0.548151   4.917417   0.522986
     6  C    0.542439  -0.043026  -0.030298  -0.039830   0.522986   4.929750
     7  H    0.380541  -0.030070   0.002203   0.000228   0.002144  -0.027685
     8  H   -0.029246   0.382195  -0.026251   0.001562   0.000189   0.002370
     9  H    0.001907  -0.023930   0.368094  -0.019281   0.002554  -0.000062
    10  H    0.001948  -0.000058   0.002552  -0.019441   0.368238  -0.024000
    11  H   -0.028141   0.002290   0.000205   0.001539  -0.026641   0.382439
    12  N    0.000014   0.001535  -0.044447   0.243463  -0.044547   0.001520
    13  O   -0.000005  -0.000028   0.003704  -0.087998   0.004203   0.000786
    14  O   -0.000004   0.000782   0.004196  -0.087957   0.003713  -0.000028
    15  C   -0.000015  -0.000000   0.000000  -0.000000   0.000000  -0.000000
    16  C    0.000000  -0.000000   0.000000   0.000000  -0.000000  -0.000000
    17  C   -0.000000   0.000000  -0.000000  -0.000000   0.000000  -0.000000
    18  C   -0.000000   0.000000  -0.000000  -0.000000  -0.000000   0.000000
    19  C    0.000008  -0.000009  -0.000000   0.000000  -0.000000  -0.000000
    20  C   -0.000353  -0.000133   0.000002  -0.000000  -0.000000   0.000004
    21  H    0.000001  -0.000000   0.000000  -0.000000   0.000000  -0.000000
    22  H    0.000000  -0.000000  -0.000000   0.000000   0.000000  -0.000000
    23  H    0.000000  -0.000000   0.000000   0.000000  -0.000000   0.000000
    24  H   -0.000000  -0.000002  -0.000000   0.000000   0.000000  -0.000000
    25  H    0.000489   0.000302   0.000003  -0.000000  -0.000000   0.000014
    26  N    0.000000  -0.000000   0.000000   0.000000   0.000000  -0.000000
    27  O   -0.000000   0.000000   0.000000  -0.000000   0.000000   0.000000
    28  O   -0.000000   0.000000   0.000000  -0.000000   0.000000   0.000000
               7          8          9         10         11         12
     1  C    0.380541  -0.029246   0.001907   0.001948  -0.028141   0.000014
     2  C   -0.030070   0.382195  -0.023930  -0.000058   0.002290   0.001535
     3  C    0.002203  -0.026251   0.368094   0.002552   0.000205  -0.044447
     4  C    0.000228   0.001562  -0.019281  -0.019441   0.001539   0.243463
     5  C    0.002144   0.000189   0.002554   0.368238  -0.026641  -0.044547
     6  C   -0.027685   0.002370  -0.000062  -0.024000   0.382439   0.001520
     7  H    0.457933  -0.001436  -0.000072  -0.000073  -0.001118   0.000003
     8  H   -0.001436   0.449551  -0.001101   0.000007  -0.000092  -0.000050
     9  H   -0.000072  -0.001101   0.389470  -0.000074   0.000007  -0.005347
    10  H   -0.000073   0.000007  -0.000074   0.390337  -0.001096  -0.005348
    11  H   -0.001118  -0.000092   0.000007  -0.001096   0.446216  -0.000049
    12  N    0.000003  -0.000050  -0.005347  -0.005348  -0.000049   5.735985
    13  O   -0.000000   0.000000   0.000049   0.009074  -0.000001   0.314669
    14  O   -0.000000  -0.000001   0.009065   0.000049   0.000000   0.314720
    15  C    0.000049   0.000003  -0.000000   0.000000  -0.000000  -0.000000
    16  C   -0.000000  -0.000000   0.000000  -0.000000   0.000000   0.000000
    17  C    0.000000  -0.000000   0.000000   0.000000  -0.000000   0.000000
    18  C   -0.000000   0.000000   0.000000   0.000000  -0.000000  -0.000000
    19  C    0.000000   0.000024  -0.000000  -0.000000  -0.000000  -0.000000
    20  C    0.000134   0.000208  -0.000000   0.000000   0.000000  -0.000000
    21  H    0.000116  -0.000001  -0.000000  -0.000000  -0.000000   0.000000
    22  H   -0.000000  -0.000000   0.000000  -0.000000  -0.000000   0.000000
    23  H   -0.000000   0.000000   0.000000  -0.000000   0.000000   0.000000
    24  H   -0.000001   0.000006  -0.000000  -0.000000   0.000000  -0.000000
    25  H    0.000954   0.000273  -0.000000  -0.000000  -0.000001  -0.000000
    26  N    0.000000  -0.000000  -0.000000  -0.000000   0.000000   0.000000
    27  O    0.000000  -0.000000   0.000000   0.000000  -0.000000   0.000000
    28  O    0.000000  -0.000000   0.000000   0.000000  -0.000000   0.000000
              13         14         15         16         17         18
     1  C   -0.000005  -0.000004  -0.000015   0.000000  -0.000000  -0.000000
     2  C   -0.000028   0.000782  -0.000000  -0.000000   0.000000   0.000000
     3  C    0.003704   0.004196   0.000000   0.000000  -0.000000  -0.000000
     4  C   -0.087998  -0.087957  -0.000000   0.000000  -0.000000  -0.000000
     5  C    0.004203   0.003713   0.000000  -0.000000   0.000000  -0.000000
     6  C    0.000786  -0.000028  -0.000000  -0.000000  -0.000000   0.000000
     7  H   -0.000000  -0.000000   0.000049  -0.000000   0.000000  -0.000000
     8  H    0.000000  -0.000001   0.000003  -0.000000  -0.000000   0.000000
     9  H    0.000049   0.009065  -0.000000   0.000000   0.000000   0.000000
    10  H    0.009074   0.000049   0.000000  -0.000000   0.000000   0.000000
    11  H   -0.000001   0.000000  -0.000000   0.000000  -0.000000  -0.000000
    12  N    0.314669   0.314720  -0.000000   0.000000   0.000000  -0.000000
    13  O    8.301832  -0.087652   0.000000   0.000000   0.000000   0.000000
    14  O   -0.087652   8.301208   0.000000   0.000000   0.000000   0.000000
    15  C    0.000000   0.000000   4.876430   0.543278  -0.045331  -0.028796
    16  C    0.000000   0.000000   0.543278   4.930021   0.521985  -0.039858
    17  C    0.000000   0.000000  -0.045331   0.521985   4.918452   0.548168
    18  C    0.000000   0.000000  -0.028796  -0.039858   0.548168   4.819251
    19  C    0.000000   0.000000  -0.044784  -0.030586  -0.052705   0.548937
    20  C   -0.000000  -0.000000   0.541306  -0.042773  -0.030609  -0.039849
    21  H   -0.000000  -0.000000   0.381461  -0.027199   0.002199   0.000210
    22  H    0.000000   0.000000  -0.027693   0.382498  -0.026964   0.001552
    23  H    0.000000   0.000000   0.001939  -0.023849   0.368116  -0.019487
    24  H   -0.000000  -0.000000   0.001876  -0.000060   0.002570  -0.018593
    25  H    0.000000   0.000000  -0.029143   0.002371   0.000204   0.001499
    26  N    0.000000   0.000000   0.000016   0.001509  -0.044423   0.243674
    27  O    0.000000   0.000000  -0.000003  -0.000029   0.003713  -0.088252
    28  O    0.000000   0.000000  -0.000004   0.000778   0.004135  -0.087956
              19         20         21         22         23         24
     1  C    0.000008  -0.000353   0.000001   0.000000   0.000000  -0.000000
     2  C   -0.000009  -0.000133  -0.000000  -0.000000  -0.000000  -0.000002
     3  C   -0.000000   0.000002   0.000000  -0.000000   0.000000  -0.000000
     4  C    0.000000  -0.000000  -0.000000   0.000000   0.000000   0.000000
     5  C   -0.000000  -0.000000   0.000000   0.000000  -0.000000   0.000000
     6  C   -0.000000   0.000004  -0.000000  -0.000000   0.000000  -0.000000
     7  H    0.000000   0.000134   0.000116  -0.000000  -0.000000  -0.000001
     8  H    0.000024   0.000208  -0.000001  -0.000000   0.000000   0.000006
     9  H   -0.000000  -0.000000  -0.000000   0.000000   0.000000  -0.000000
    10  H   -0.000000   0.000000  -0.000000  -0.000000  -0.000000  -0.000000
    11  H   -0.000000   0.000000  -0.000000  -0.000000   0.000000   0.000000
    12  N   -0.000000  -0.000000   0.000000   0.000000   0.000000  -0.000000
    13  O    0.000000  -0.000000  -0.000000   0.000000   0.000000  -0.000000
    14  O    0.000000  -0.000000  -0.000000   0.000000   0.000000  -0.000000
    15  C   -0.044784   0.541306   0.381461  -0.027693   0.001939   0.001876
    16  C   -0.030586  -0.042773  -0.027199   0.382498  -0.023849  -0.000060
    17  C   -0.052705  -0.030609   0.002199  -0.026964   0.368116   0.002570
    18  C    0.548937  -0.039849   0.000210   0.001552  -0.019487  -0.018593
    19  C    4.919450   0.520958   0.002213   0.000196   0.002571   0.367749
    20  C    0.520958   4.944357  -0.029270   0.002328  -0.000060  -0.024374
    21  H    0.002213  -0.029270   0.450496  -0.001208  -0.000071  -0.000071
    22  H    0.000196   0.002328  -0.001208   0.444392  -0.001088   0.000007
    23  H    0.002571  -0.000060  -0.000071  -0.001088   0.389789  -0.000075
    24  H    0.367749  -0.024374  -0.000071   0.000007  -0.000075   0.390969
    25  H   -0.026847   0.379377  -0.001344  -0.000094   0.000007  -0.000960
    26  N   -0.044527   0.001514   0.000002  -0.000049  -0.005341  -0.005400
    27  O    0.004322   0.000784   0.000000   0.000000   0.000049   0.009218
    28  O    0.003757  -0.000030   0.000000  -0.000001   0.009058   0.000051
              25         26         27         28
     1  C    0.000489   0.000000  -0.000000  -0.000000
     2  C    0.000302  -0.000000   0.000000   0.000000
     3  C    0.000003   0.000000   0.000000   0.000000
     4  C   -0.000000   0.000000  -0.000000  -0.000000
     5  C   -0.000000   0.000000   0.000000   0.000000
     6  C    0.000014  -0.000000   0.000000   0.000000
     7  H    0.000954   0.000000   0.000000   0.000000
     8  H    0.000273  -0.000000  -0.000000  -0.000000
     9  H   -0.000000  -0.000000   0.000000   0.000000
    10  H   -0.000000  -0.000000   0.000000   0.000000
    11  H   -0.000001   0.000000  -0.000000  -0.000000
    12  N   -0.000000   0.000000   0.000000   0.000000
    13  O    0.000000   0.000000   0.000000   0.000000
    14  O    0.000000   0.000000   0.000000   0.000000
    15  C   -0.029143   0.000016  -0.000003  -0.000004
    16  C    0.002371   0.001509  -0.000029   0.000778
    17  C    0.000204  -0.044423   0.003713   0.004135
    18  C    0.001499   0.243674  -0.088252  -0.087956
    19  C   -0.026847  -0.044527   0.004322   0.003757
    20  C    0.379377   0.001514   0.000784  -0.000030
    21  H   -0.001344   0.000002   0.000000   0.000000
    22  H   -0.000094  -0.000049   0.000000  -0.000001
    23  H    0.000007  -0.005341   0.000049   0.009058
    24  H   -0.000960  -0.005400   0.009218   0.000051
    25  H    0.455443  -0.000051  -0.000002   0.000000
    26  N   -0.000051   5.735763   0.314627   0.314765
    27  O   -0.000002   0.314627   8.302192  -0.087675
    28  O    0.000000   0.314765  -0.087675   8.301147
 Mulliken charges:
               1
     1  C   -0.173035
     2  C   -0.219348
     3  C   -0.169570
     4  C    0.159506
     5  C   -0.169965
     6  C   -0.217378
     7  H    0.216152
     8  H    0.221788
     9  H    0.278721
    10  H    0.277885
    11  H    0.224443
    12  N    0.487880
    13  O   -0.458635
    14  O   -0.458091
    15  C   -0.170590
    16  C   -0.218086
    17  C   -0.169509
    18  C    0.159501
    19  C   -0.170728
    20  C   -0.223520
    21  H    0.222465
    22  H    0.226124
    23  H    0.278441
    24  H    0.277091
    25  H    0.217507
    26  N    0.487921
    27  O   -0.458944
    28  O   -0.458025
 Sum of Mulliken charges =  -0.00000
 Mulliken charges with hydrogens summed into heavy atoms:
               1
     1  C    0.043117
     2  C    0.002440
     3  C    0.109151
     4  C    0.159506
     5  C    0.107920
     6  C    0.007065
    12  N    0.487880
    13  O   -0.458635
    14  O   -0.458091
    15  C    0.051875
    16  C    0.008038
    17  C    0.108933
    18  C    0.159501
    19  C    0.106362
    20  C   -0.006013
    26  N    0.487921
    27  O   -0.458944
    28  O   -0.458025
 Electronic spatial extent (au):  <R**2>=          10864.8966
 Charge=              0.0000 electrons
 Dipole moment (field-independent basis, Debye):
    X=              1.5261    Y=              6.5551    Z=              0.3153  Tot=              6.7378
 Quadrupole moment (field-independent basis, Debye-Ang):
   XX=           -168.1535   YY=           -102.8607   ZZ=           -105.1647
   XY=              8.1338   XZ=              6.2678   YZ=             -1.1834
 Traceless Quadrupole moment (field-independent basis, Debye-Ang):
   XX=            -42.7606   YY=             22.5323   ZZ=             20.2283
   XY=              8.1338   XZ=              6.2678   YZ=             -1.1834
 Octapole moment (field-independent basis, Debye-Ang**2):
  XXX=            143.6715  YYY=             29.6877  ZZZ=             -2.0782  XYY=            -13.0660
  XXY=            202.1034  XXZ=              9.6111  XZZ=             -3.8357  YZZ=            -11.8392
  YYZ=              2.2589  XYZ=              5.1324
 Hexadecapole moment (field-independent basis, Debye-Ang**3):
 XXXX=         -16284.5756 YYYY=          -1209.5828 ZZZZ=           -203.5577 XXXY=            188.0390
 XXXZ=            136.9100 YYYX=             50.8602 YYYZ=             -6.1704 ZZZX=            -20.8012
 ZZZY=             -1.5520 XXYY=          -2495.2428 XXZZ=          -2109.6396 YYZZ=           -238.3207
 XXYZ=             19.4459 YYXZ=             82.4931 ZZXY=            -19.3450
 N-N= 1.083100405592D+03 E-N=-4.198412800303D+03  KE= 8.656897764401D+02
 Leave Link  601 at Fri May  7 09:41:01 2021, MaxMem=   524288000 cpu:               0.5 elap:               0.5
 (Enter /opt/gaussian/g16_legacy/l9999.exe)
 1\1\GINC-TRUENO90\SP\RMP2-FC\6-31G(d)\C12H10N2O4\JRAMOS\07-May-2021\0\
 \#p 6-31g* mp2\\Input file generated by CHIRIPA (05-May-2021 14:57:26)
 \\0,1\C,0,1.914143,0.,0.\C,0,1.214143,1.211,0.\C,0,-0.183857,1.223,0.\
 C,0,-0.852857,0.,0.\C,0,-0.183857,-1.223,0.\C,0,1.214143,-1.211,0.\H,0
 ,3.000143,0.,0.\H,0,1.755143,2.153,0.\H,0,-0.750857,2.146,0.\H,0,-0.75
 0857,-2.146,0.\H,0,1.755143,-2.153,0.\N,0,-2.332857,0.,0.\O,0,-2.89885
 7,-1.091,0.\O,0,-2.898857,1.091,0.\C,0,6.657275,1.681078,0.122049\C,0,
 7.896735,2.325631,0.052696\C,0,8.113536,3.523507,0.740183\C,0,7.064089
 ,4.051099,1.490914\C,0,5.817924,3.432653,1.579722\C,0,5.623647,2.23566
 8,0.883997\H,0,6.497607,0.750885,-0.415207\H,0,8.701278,1.897237,-0.53
 8264\H,0,9.06315,4.043444,0.703884\H,0,5.035035,3.884022,2.177023\H,0,
 4.660024,1.737295,0.93968\N,0,7.281684,5.318765,2.223086\O,0,6.340977,
 5.763037,2.877555\O,0,8.388821,5.844085,2.128629\\Version=EM64L-G16Rev
 A.03\State=1-A\HF=-868.3361834\MP2=-870.9360839\RMSD=2.688e-09\PG=C01 
 [X(C12H10N2O4)]\\@


 THE RARE EARTHS PERPLEX US IN OUR RESEARCHES,
 BAFFLE US IN OUR SPECULATIONS, AND HAUNT US IN OUR
 VERY DREAMS.  THEY STRETCH LIKE AN UNKNOWN BEFORE US,
 MOCKING, MYSTIFYING, AND MURMURING STRANGE REVELATIONS
 AND POSSIBILITIES.  -- SIR WILLIAM CROOKE, 1832-1919
 Job cpu time:       0 days  0 hours  4 minutes 51.1 seconds.
 Elapsed time:       0 days  0 hours  2 minutes 30.2 seconds.
 File lengths (MBytes):  RWF=     50 Int=      0 D2E=      0 Chk=      7 Scr=      1
 Normal termination of Gaussian 16 at Fri May  7 09:41:01 2021.
