 Entering Gaussian System, Link 0=/opt/gaussian/g16_legacy/g16
 Input=gaussian_00058_1_2.com
 Output=gaussian_00058_1_2.log
 Initial command:
 /opt/gaussian/g16_legacy/l1.exe "/scratch-local/jramos/2585432/Gau-27163.inp" -scrdir="/scratch-local/jramos/2585432/"
 Entering Link 1 = /opt/gaussian/g16_legacy/l1.exe PID=     27165.
  
 Copyright (c) 1988,1990,1992,1993,1995,1998,2003,2009,2016,
            Gaussian, Inc.  All Rights Reserved.
  
 This is part of the Gaussian(R) 16 program.  It is based on
 the Gaussian(R) 09 system (copyright 2009, Gaussian, Inc.),
 the Gaussian(R) 03 system (copyright 2003, Gaussian, Inc.),
 the Gaussian(R) 98 system (copyright 1998, Gaussian, Inc.),
 the Gaussian(R) 94 system (copyright 1995, Gaussian, Inc.),
 the Gaussian 92(TM) system (copyright 1992, Gaussian, Inc.),
 the Gaussian 90(TM) system (copyright 1990, Gaussian, Inc.),
 the Gaussian 88(TM) system (copyright 1988, Gaussian, Inc.),
 the Gaussian 86(TM) system (copyright 1986, Carnegie Mellon
 University), and the Gaussian 82(TM) system (copyright 1983,
 Carnegie Mellon University). Gaussian is a federally registered
 trademark of Gaussian, Inc.
  
 This software contains proprietary and confidential information,
 including trade secrets, belonging to Gaussian, Inc.
  
 This software is provided under written license and may be
 used, copied, transmitted, or stored only in accord with that
 written license.
  
 The following legend is applicable only to US Government
 contracts under FAR:
  
                    RESTRICTED RIGHTS LEGEND
  
 Use, reproduction and disclosure by the US Government is
 subject to restrictions as set forth in subparagraphs (a)
 and (c) of the Commercial Computer Software - Restricted
 Rights clause in FAR 52.227-19.
  
 Gaussian, Inc.
 340 Quinnipiac St., Bldg. 40, Wallingford CT 06492
  
  
 ---------------------------------------------------------------
 Warning -- This program may not be used in any manner that
 competes with the business of Gaussian, Inc. or will provide
 assistance to any competitor of Gaussian, Inc.  The licensee
 of this program is prohibited from giving any competitor of
 Gaussian, Inc. access to this program.  By using this program,
 the user acknowledges that Gaussian, Inc. is engaged in the
 business of creating and licensing software in the field of
 computational chemistry and represents and warrants to the
 licensee that it is not a competitor of Gaussian, Inc. and that
 it will not use this program in any manner prohibited above.
 ---------------------------------------------------------------
  

 Cite this work as:
 Gaussian 16, Revision A.03,
 M. J. Frisch, G. W. Trucks, H. B. Schlegel, G. E. Scuseria, 
 M. A. Robb, J. R. Cheeseman, G. Scalmani, V. Barone, 
 G. A. Petersson, H. Nakatsuji, X. Li, M. Caricato, A. V. Marenich, 
 J. Bloino, B. G. Janesko, R. Gomperts, B. Mennucci, H. P. Hratchian, 
 J. V. Ortiz, A. F. Izmaylov, J. L. Sonnenberg, D. Williams-Young, 
 F. Ding, F. Lipparini, F. Egidi, J. Goings, B. Peng, A. Petrone, 
 T. Henderson, D. Ranasinghe, V. G. Zakrzewski, J. Gao, N. Rega, 
 G. Zheng, W. Liang, M. Hada, M. Ehara, K. Toyota, R. Fukuda, 
 J. Hasegawa, M. Ishida, T. Nakajima, Y. Honda, O. Kitao, H. Nakai, 
 T. Vreven, K. Throssell, J. A. Montgomery, Jr., J. E. Peralta, 
 F. Ogliaro, M. J. Bearpark, J. J. Heyd, E. N. Brothers, K. N. Kudin, 
 V. N. Staroverov, T. A. Keith, R. Kobayashi, J. Normand, 
 K. Raghavachari, A. P. Rendell, J. C. Burant, S. S. Iyengar, 
 J. Tomasi, M. Cossi, J. M. Millam, M. Klene, C. Adamo, R. Cammi, 
 J. W. Ochterski, R. L. Martin, K. Morokuma, O. Farkas, 
 J. B. Foresman, and D. J. Fox, Gaussian, Inc., Wallingford CT, 2016.
 
 ******************************************
 Gaussian 16:  EM64L-G16RevA.03 25-Dec-2016
                 5-May-2021 
 ******************************************
 %chk=gaussian_00058_1_2.chk
 %nproc=2
 Will use up to    2 processors via shared memory.
 %mem=4000Mb
 -------------
 #p 6-31g* mp2
 -------------
 1/38=1,172=1/1;
 2/12=2,17=6,18=5,40=1/2;
 3/5=1,6=6,7=1,11=9,25=1,30=1/1,2,3;
 4//1;
 5/5=2,38=5/2;
 8/10=2/1;
 9/16=-3/6;
 6/7=2,8=2,9=2,10=2/1;
 99/5=1,9=1/99;
 Leave Link    1 at Wed May  5 18:25:43 2021, MaxMem=   524288000 cpu:               0.1 elap:               0.1
 (Enter /opt/gaussian/g16_legacy/l101.exe)
 ------------------------------------------------------
 Input file generated by CHIRIPA (05-May-2021 14:53:11)
 ------------------------------------------------------
 Symbolic Z-matrix:
 Charge =  0 Multiplicity = 1
 C                    -0.666    -0.374     0. 
 C                    -1.882     0.553     0. 
 C                    -3.207    -0.21      0. 
 H                    -0.713    -1.03     -0.88 
 H                    -0.713    -1.029     0.881 
 H                    -1.832     1.207    -0.88 
 H                    -1.832     1.207     0.88 
 H                    -3.283    -0.85      0.885 
 H                    -3.283    -0.85     -0.885 
 H                    -4.063     0.472     0. 
 C                     0.666     0.374     0. 
 C                     1.882    -0.553     0. 
 C                     3.207     0.21      0. 
 H                     0.713     1.029    -0.881 
 H                     0.713     1.03      0.88 
 H                     1.832    -1.207    -0.88 
 H                     1.832    -1.207     0.88 
 H                     3.283     0.85      0.885 
 H                     3.283     0.85     -0.885 
 H                     4.063    -0.472     0. 
 C                    -6.49148  -3.36452   1.23214 
 C                    -7.54873  -3.97424   1.9155 
 C                    -7.31977  -4.65702   3.11381 
 C                    -6.01523  -4.71064   3.60225 
 C                    -4.94097  -4.11333   2.94461 
 C                    -5.19327  -3.43588   1.74796 
 H                    -6.6784   -2.83619   0.30191 
 H                    -8.55796  -3.92044   1.51727 
 H                    -8.11982  -5.13803   3.66333 
 H                    -3.94574  -4.184     3.36643 
 H                    -4.37026  -2.9633    1.2194 
 N                    -5.76049  -5.43064   4.86996 
 O                    -4.60205  -5.46349   5.27931 
 O                    -6.7241   -5.94851   5.43025 
 
 ITRead=  0  0  0  0  0  0  0  0  0  0  0  0  0  0  0  0  0  0  0  0
 ITRead=  0  0  0  0  0  0  0  0  0  0  0  0  0  0
 MicOpt= -1 -1 -1 -1 -1 -1 -1 -1 -1 -1 -1 -1 -1 -1 -1 -1 -1 -1 -1 -1
 MicOpt= -1 -1 -1 -1 -1 -1 -1 -1 -1 -1 -1 -1 -1 -1
 NAtoms=     34 NQM=       34 NQMF=       0 NMMI=      0 NMMIF=      0
                NMic=       0 NMicF=      0.
                    Isotopes and Nuclear Properties:
 (Nuclear quadrupole moments (NQMom) in fm**2, nuclear magnetic moments (NMagM)
  in nuclear magnetons)

  Atom         1           2           3           4           5           6           7           8           9          10
 IAtWgt=          12          12          12           1           1           1           1           1           1           1
 AtmWgt=  12.0000000  12.0000000  12.0000000   1.0078250   1.0078250   1.0078250   1.0078250   1.0078250   1.0078250   1.0078250
 NucSpn=           0           0           0           1           1           1           1           1           1           1
 AtZEff=  -0.0000000  -0.0000000  -0.0000000  -0.0000000  -0.0000000  -0.0000000  -0.0000000  -0.0000000  -0.0000000  -0.0000000
 NQMom=    0.0000000   0.0000000   0.0000000   0.0000000   0.0000000   0.0000000   0.0000000   0.0000000   0.0000000   0.0000000
 NMagM=    0.0000000   0.0000000   0.0000000   2.7928460   2.7928460   2.7928460   2.7928460   2.7928460   2.7928460   2.7928460
 AtZNuc=   6.0000000   6.0000000   6.0000000   1.0000000   1.0000000   1.0000000   1.0000000   1.0000000   1.0000000   1.0000000

  Atom        11          12          13          14          15          16          17          18          19          20
 IAtWgt=          12          12          12           1           1           1           1           1           1           1
 AtmWgt=  12.0000000  12.0000000  12.0000000   1.0078250   1.0078250   1.0078250   1.0078250   1.0078250   1.0078250   1.0078250
 NucSpn=           0           0           0           1           1           1           1           1           1           1
 AtZEff=  -0.0000000  -0.0000000  -0.0000000  -0.0000000  -0.0000000  -0.0000000  -0.0000000  -0.0000000  -0.0000000  -0.0000000
 NQMom=    0.0000000   0.0000000   0.0000000   0.0000000   0.0000000   0.0000000   0.0000000   0.0000000   0.0000000   0.0000000
 NMagM=    0.0000000   0.0000000   0.0000000   2.7928460   2.7928460   2.7928460   2.7928460   2.7928460   2.7928460   2.7928460
 AtZNuc=   6.0000000   6.0000000   6.0000000   1.0000000   1.0000000   1.0000000   1.0000000   1.0000000   1.0000000   1.0000000

  Atom        21          22          23          24          25          26          27          28          29          30
 IAtWgt=          12          12          12          12          12          12           1           1           1           1
 AtmWgt=  12.0000000  12.0000000  12.0000000  12.0000000  12.0000000  12.0000000   1.0078250   1.0078250   1.0078250   1.0078250
 NucSpn=           0           0           0           0           0           0           1           1           1           1
 AtZEff=  -0.0000000  -0.0000000  -0.0000000  -0.0000000  -0.0000000  -0.0000000  -0.0000000  -0.0000000  -0.0000000  -0.0000000
 NQMom=    0.0000000   0.0000000   0.0000000   0.0000000   0.0000000   0.0000000   0.0000000   0.0000000   0.0000000   0.0000000
 NMagM=    0.0000000   0.0000000   0.0000000   0.0000000   0.0000000   0.0000000   2.7928460   2.7928460   2.7928460   2.7928460
 AtZNuc=   6.0000000   6.0000000   6.0000000   6.0000000   6.0000000   6.0000000   1.0000000   1.0000000   1.0000000   1.0000000

  Atom        31          32          33          34
 IAtWgt=           1          14          16          16
 AtmWgt=   1.0078250  14.0030740  15.9949146  15.9949146
 NucSpn=           1           2           0           0
 AtZEff=  -0.0000000  -0.0000000  -0.0000000  -0.0000000
 NQMom=    0.0000000   2.0440000   0.0000000   0.0000000
 NMagM=    2.7928460   0.4037610   0.0000000   0.0000000
 AtZNuc=   1.0000000   7.0000000   8.0000000   8.0000000
 Leave Link  101 at Wed May  5 18:25:44 2021, MaxMem=   524288000 cpu:               0.6 elap:               0.5
 (Enter /opt/gaussian/g16_legacy/l202.exe)
                          Input orientation:                          
 ---------------------------------------------------------------------
 Center     Atomic      Atomic             Coordinates (Angstroms)
 Number     Number       Type             X           Y           Z
 ---------------------------------------------------------------------
      1          6           0       -0.666000   -0.374000    0.000000
      2          6           0       -1.882000    0.553000    0.000000
      3          6           0       -3.207000   -0.210000    0.000000
      4          1           0       -0.713000   -1.030000   -0.880000
      5          1           0       -0.713000   -1.029000    0.881000
      6          1           0       -1.832000    1.207000   -0.880000
      7          1           0       -1.832000    1.207000    0.880000
      8          1           0       -3.283000   -0.850000    0.885000
      9          1           0       -3.283000   -0.850000   -0.885000
     10          1           0       -4.063000    0.472000    0.000000
     11          6           0        0.666000    0.374000    0.000000
     12          6           0        1.882000   -0.553000    0.000000
     13          6           0        3.207000    0.210000    0.000000
     14          1           0        0.713000    1.029000   -0.881000
     15          1           0        0.713000    1.030000    0.880000
     16          1           0        1.832000   -1.207000   -0.880000
     17          1           0        1.832000   -1.207000    0.880000
     18          1           0        3.283000    0.850000    0.885000
     19          1           0        3.283000    0.850000   -0.885000
     20          1           0        4.063000   -0.472000    0.000000
     21          6           0       -6.491480   -3.364516    1.232138
     22          6           0       -7.548725   -3.974241    1.915503
     23          6           0       -7.319774   -4.657023    3.113810
     24          6           0       -6.015227   -4.710637    3.602250
     25          6           0       -4.940975   -4.113326    2.944608
     26          6           0       -5.193268   -3.435879    1.747962
     27          1           0       -6.678400   -2.836187    0.301910
     28          1           0       -8.557961   -3.920437    1.517265
     29          1           0       -8.119824   -5.138027    3.663330
     30          1           0       -3.945743   -4.184002    3.366431
     31          1           0       -4.370265   -2.963299    1.219398
     32          7           0       -5.760491   -5.430644    4.869964
     33          8           0       -4.602046   -5.463490    5.279310
     34          8           0       -6.724098   -5.948505    5.430249
 ---------------------------------------------------------------------
                    Distance matrix (angstroms):
                    1          2          3          4          5
     1  C    0.000000
     2  C    1.529047   0.000000
     3  C    2.546287   1.528985   0.000000
     4  H    1.098610   2.155655   2.768905   0.000000
     5  H    1.098815   2.155330   2.768927   1.761000   0.000000
     6  H    2.152561   1.097550   2.161692   2.501266   3.058264
     7  H    2.152561   1.097550   2.161692   3.058420   2.500372
     8  H    2.803300   2.171275   1.094806   3.122903   2.576229
     9  H    2.803300   2.171275   1.094806   2.576301   3.123411
    10  H    3.500761   2.182504   1.094468   3.775302   3.775137
    11  C    1.527654   2.554280   3.916782   2.155750   2.155507
    12  C    2.554280   3.923128   5.100546   2.781358   2.781504
    13  C    3.916782   5.100546   6.427736   4.204569   4.204484
    14  H    2.155507   2.781504   4.204484   2.504587   3.061615
    15  H    2.155750   2.781358   4.204569   3.061809   2.504587
    16  H    2.776381   4.203070   5.211519   2.551148   3.099973
    17  H    2.776381   4.203070   5.211519   3.099347   2.551217
    18  H    4.228002   5.248682   6.635279   4.755801   4.415730
    19  H    4.228002   5.248682   6.635279   4.416157   4.755777
    20  H    4.730015   6.032715   7.274720   4.888347   4.888413
    21  C    6.663150   6.173524   4.717727   6.580420   6.242497
    22  C    8.000174   7.501789   6.057164   7.950505   7.514771
    23  C    8.503694   8.149205   6.810781   8.529670   7.861136
    24  C    7.771541   7.600371   6.412338   7.858197   7.005231
    25  C    6.397553   6.308934   5.187807   6.481535   5.625595
    26  C    5.738173   5.470925   4.172161   5.724268   5.159214
    27  H    6.504035   5.880747   4.363327   6.343912   6.259973
    28  H    8.784211   8.178153   6.685972   8.697409   8.385026
    29  H    9.574729   9.204250   7.863922   9.611388   8.915520
    30  H    6.050263   6.166934   5.260351   6.199236   5.155777
    31  H    4.681130   4.476913   3.228122   4.639041   4.151098
    32  N    8.674101   8.635001   7.582347   8.826376   7.795093
    33  O    8.322649   8.453870   7.577363   8.527462   7.357616
    34  O    9.862214   9.757207   8.648007  10.007209   9.001694
                    6          7          8          9         10
     6  H    0.000000
     7  H    1.760000   0.000000
     8  H    3.074390   2.517275   0.000000
     9  H    2.517275   3.074390   1.770000   0.000000
    10  H    2.508383   2.508383   1.771810   1.771810   0.000000
    11  C    2.776381   2.776381   4.228002   4.228002   4.730015
    12  C    4.203070   4.203070   5.248682   5.248682   6.032715
    13  C    5.211519   5.211519   6.635279   6.635279   7.274720
    14  H    2.551217   3.099973   4.755777   4.415730   4.888413
    15  H    3.099347   2.551148   4.416157   4.755801   4.888347
    16  H    4.387743   4.727567   5.422721   5.127446   6.192291
    17  H    4.727567   4.387743   5.127446   5.422721   6.192291
    18  H    5.422721   5.127446   6.782504   7.009654   7.408767
    19  H    5.127446   5.422721   7.009654   6.782504   7.408767
    20  H    6.192291   6.192291   7.408767   7.408767   8.180649
    21  C    6.860805   6.537088   4.091166   4.593409   4.704735
    22  C    8.206159   7.784502   5.386950   5.983319   5.965609
    23  C    8.969557   8.336206   5.979679   6.839550   6.827098
    24  C    8.521055   7.741347   5.454634   6.519585   6.606597
    25  C    7.252532   6.498785   4.200019   5.297554   5.519671
    26  C    6.305603   5.797224   3.328753   4.155524   4.427685
    27  H    6.421204   6.337913   3.976641   4.108824   4.227951
    28  H    8.790679   8.481466   6.136168   6.559243   6.465313
    29  H   10.021873   9.356443   7.035706   7.903755   7.832638
    30  H    7.180737   6.301837   4.208598   5.443295   5.746735
    31  H    5.314288   4.893810   2.400000   3.174377   3.658227
    32  N    9.620470   8.683961   6.557454   7.761435   7.838318
    33  O    9.492402   8.457099   6.506469   7.811715   7.961892
    34  O   10.721619   9.789721   7.648215   8.815797   8.819973
                   11         12         13         14         15
    11  C    0.000000
    12  C    1.529047   0.000000
    13  C    2.546287   1.528985   0.000000
    14  H    1.098815   2.155330   2.768927   0.000000
    15  H    1.098610   2.155655   2.768905   1.761000   0.000000
    16  H    2.152561   1.097550   2.161692   2.500372   3.058420
    17  H    2.152561   1.097550   2.161692   3.058264   2.501266
    18  H    2.803300   2.171275   1.094806   3.123411   2.576301
    19  H    2.803300   2.171275   1.094806   2.576229   3.122903
    20  H    3.500761   2.182504   1.094468   3.775137   3.775302
    21  C    8.168487   8.918405  10.409411   8.699015   8.446319
    22  C    9.489892  10.213355  11.698831  10.055295   9.714463
    23  C    9.938792  10.545685  12.008193  10.621432  10.092452
    24  C    9.136111   9.624362  11.056145   9.915241   9.253896
    25  C    7.761764   8.240123   9.682529   8.546709   7.917313
    26  C    7.204274   7.837460   9.322677   7.856882   7.455296
    27  H    8.021014   8.864792  10.348504   8.424473   8.361482
    28  H   10.287164  11.074047  12.560928  10.779579  10.529181
    29  H   10.999688  11.596506  13.050606  11.691960  11.127006
    30  H    7.305916   7.647197   9.044437   8.180461   7.421054
    31  H    6.163478   6.810822   8.304920   6.796301   6.473114
    32  N    9.935302  10.291532  11.659730  10.803086   9.978267
    33  O    9.470993   9.696746  11.001854  10.409206   9.474653
    34  O   11.138906  11.517986  12.885709  11.992826  11.167575
                   16         17         18         19         20
    16  H    0.000000
    17  H    1.760000   0.000000
    18  H    3.074390   2.517275   0.000000
    19  H    2.517275   3.074390   1.770000   0.000000
    20  H    2.508383   2.508383   1.771810   1.771810   0.000000
    21  C    8.854170   8.605765  10.650029  10.852874  11.012804
    22  C   10.172043   9.835034  11.902164  12.183693  12.278721
    23  C   10.564476  10.032324  12.153753  12.599071  12.521093
    24  C    9.692523   9.014715  11.169653  11.726599  11.511425
    25  C    8.303466   7.653922   9.823968  10.340903  10.148967
    26  C    7.824863   7.421297   9.537326   9.856387   9.875143
    27  H    8.745174   8.684201  10.637549  10.687667  11.002645
    28  H   11.002768  10.757329  12.781439  12.989854  13.171274
    29  H   11.624699  11.056161  13.175735  13.658996  13.550387
    30  H    7.763828   6.958965   9.151688   9.781133   9.447316
    31  H    6.779392   6.455065   8.557192   8.805805   8.877695
    32  N   10.418598   9.560591  11.709447  12.423801  12.033523
    33  O    9.871766   8.880799  11.015628  11.833547  11.307922
    34  O   11.640787  10.788580  12.923659  13.647126  13.260513
                   21         22         23         24         25
    21  C    0.000000
    22  C    1.398756   0.000000
    23  C    2.428443   1.398052   0.000000
    24  C    2.767000   2.395623   1.394020   0.000000
    25  C    2.428443   2.806913   2.446001   1.394020   0.000000
    26  C    1.398757   2.421999   2.806913   2.395623   1.398051
    27  H    1.085999   2.157850   3.410804   3.853000   3.410804
    28  H    2.158863   1.086299   2.150493   3.381874   3.893212
    29  H    3.421628   2.176109   1.083244   2.148423   3.416380
    30  H    3.421628   3.889816   3.416380   2.148422   1.083243
    31  H    2.158863   3.407224   3.893212   3.381874   2.150493
    32  N    4.247000   3.748030   2.472636   1.480000   2.472636
    33  O    4.935104   4.713383   3.567327   2.318706   2.718207
    34  O    4.935103   4.114750   2.718206   2.318706   3.567327
                   26         27         28         29         30
    26  C    0.000000
    27  H    2.157849   0.000000
    28  H    3.407224   2.487054   0.000000
    29  H    3.889817   4.321495   2.506010   0.000000
    30  H    2.176109   4.321494   4.976086   4.292000   0.000000
    31  H    1.086299   2.487052   4.306000   4.976087   2.506010
    32  N    3.748030   5.332999   4.620298   2.666091   2.666090
    33  O    4.114750   5.999040   5.673029   3.884853   2.393100
    34  O    4.713382   5.999039   4.773631   2.393100   3.884852
                   31         32         33         34
    31  H    0.000000
    32  N    4.620298   0.000000
    33  O    4.773632   1.229080   0.000000
    34  O    5.673028   1.229080   2.182001   0.000000
 Stoichiometry    C12H19NO2
 Framework group  C1[X(C12H19NO2)]
 Deg. of freedom    96
 Full point group                 C1      NOp   1
 Largest Abelian subgroup         C1      NOp   1
 Largest concise Abelian subgroup C1      NOp   1
                         Standard orientation:                         
 ---------------------------------------------------------------------
 Center     Atomic      Atomic             Coordinates (Angstroms)
 Number     Number       Type             X           Y           Z
 ---------------------------------------------------------------------
      1          6           0        3.972813    0.421302   -0.058756
      2          6           0        3.538576    1.595283    0.819418
      3          6           0        2.143263    2.112202    0.467723
      4          1           0        3.950016    0.731689   -1.112361
      5          1           0        3.242546   -0.393413    0.042954
      6          1           0        4.270182    2.407016    0.717148
      7          1           0        3.562594    1.282123    1.871069
      8          1           0        1.397335    1.319872    0.587752
      9          1           0        2.108943    2.451157   -0.572725
     10          1           0        1.852895    2.951280    1.107639
     11          6           0        5.365601   -0.106529    0.280753
     12          6           0        5.799837   -1.280511   -0.597422
     13          6           0        7.195151   -1.797429   -0.245726
     14          1           0        6.095868    0.708185    0.179043
     15          1           0        5.388398   -0.416917    1.334358
     16          1           0        5.775820   -0.967350   -1.649072
     17          1           0        5.068232   -2.092244   -0.495151
     18          1           0        7.229470   -2.136385    0.794722
     19          1           0        7.941079   -1.005100   -0.365755
     20          1           0        7.485519   -2.636508   -0.885642
     21          6           0       -2.467822    2.062992   -0.528481
     22          6           0       -3.856384    2.038291   -0.361740
     23          6           0       -4.520719    0.832854   -0.116527
     24          6           0       -3.761896   -0.334288   -0.044009
     25          6           0       -2.377315   -0.342210   -0.205761
     26          6           0       -1.734012    0.874757   -0.450098
     27          1           0       -1.959919    3.003882   -0.718628
     28          1           0       -4.428834    2.959543   -0.422097
     29          1           0       -5.594709    0.785027    0.016422
     30          1           0       -1.833675   -1.276859   -0.140159
     31          1           0       -0.655532    0.890932   -0.579187
     32          7           0       -4.454064   -1.616533    0.215122
     33          8           0       -3.762740   -2.631024    0.274422
     34          8           0       -5.674803   -1.582786    0.354025
 ---------------------------------------------------------------------
 Rotational constants (GHZ):           0.9024570           0.1259672           0.1126654
 Leave Link  202 at Wed May  5 18:25:44 2021, MaxMem=   524288000 cpu:               0.1 elap:               0.2
 (Enter /opt/gaussian/g16_legacy/l301.exe)
 Standard basis: 6-31G(d) (6D, 7F)
 Ernie: Thresh=  0.10000D-02 Tol=  0.10000D-05 Strict=F.
 There are   263 symmetry adapted cartesian basis functions of A   symmetry.
 There are   263 symmetry adapted basis functions of A   symmetry.
   263 basis functions,   496 primitive gaussians,   263 cartesian basis functions
    57 alpha electrons       57 beta electrons
       nuclear repulsion energy       864.8981060172 Hartrees.
 IExCor=    0 DFT=F Ex=HF Corr=None ExCW=0 ScaHFX=  1.000000
 ScaDFX=  1.000000  1.000000  1.000000  1.000000 ScalE2=  1.000000  1.000000
 IRadAn=      5 IRanWt=     -1 IRanGd=            0 ICorTp=0 IEmpDi=  4
 NAtoms=   34 NActive=   34 NUniq=   34 SFac= 1.00D+00 NAtFMM=   60 NAOKFM=F Big=F
 Integral buffers will be    131072 words long.
 Raffenetti 1 integral format.
 Two-electron integral symmetry is turned on.
 Leave Link  301 at Wed May  5 18:25:45 2021, MaxMem=   524288000 cpu:               0.3 elap:               0.3
 (Enter /opt/gaussian/g16_legacy/l302.exe)
 NPDir=0 NMtPBC=     1 NCelOv=     1 NCel=       1 NClECP=     1 NCelD=      1
         NCelK=      1 NCelE2=     1 NClLst=     1 CellRange=     0.0.
 One-electron integrals computed using PRISM.
 One-electron integral symmetry used in STVInt
 NBasis=   263 RedAO= T EigKep=  4.78D-04  NBF=   263
 NBsUse=   263 1.00D-06 EigRej= -1.00D+00 NBFU=   263
 Leave Link  302 at Wed May  5 18:25:46 2021, MaxMem=   524288000 cpu:               1.0 elap:               0.9
 (Enter /opt/gaussian/g16_legacy/l303.exe)
 DipDrv:  MaxL=1.
 Leave Link  303 at Wed May  5 18:25:46 2021, MaxMem=   524288000 cpu:               0.2 elap:               0.4
 (Enter /opt/gaussian/g16_legacy/l401.exe)
 ExpMin= 1.61D-01 ExpMax= 5.48D+03 ExpMxC= 8.25D+02 IAcc=3 IRadAn=         5 AccDes= 0.00D+00
 Harris functional with IExCor=  205 and IRadAn=       5 diagonalized for initial guess.
 HarFok:  IExCor=  205 AccDes= 0.00D+00 IRadAn=         5 IDoV= 1 UseB2=F ITyADJ=14
 ICtDFT=  3500011 ScaDFX=  1.000000  1.000000  1.000000  1.000000
 FoFCou: FMM=F IPFlag=           0 FMFlag=      100000 FMFlg1=           0
         NFxFlg=           0 DoJE=T BraDBF=F KetDBF=T FulRan=T
         wScrn=  0.000000 ICntrl=       500 IOpCl=  0 I1Cent=   200000004 NGrid=           0
         NMat0=    1 NMatS0=      1 NMatT0=    0 NMatD0=    1 NMtDS0=    0 NMtDT0=    0
 Petite list used in FoFCou.
 Harris En= -670.655882757466    
 JPrj=0 DoOrth=F DoCkMO=F.
 Leave Link  401 at Wed May  5 18:25:54 2021, MaxMem=   524288000 cpu:              13.0 elap:               7.1
 (Enter /opt/gaussian/g16_legacy/l502.exe)
 Integral symmetry usage will be decided dynamically.
 Closed shell SCF:
 Using DIIS extrapolation, IDIIS=  1040.
 NGot=   524288000 LenX=   524144919 LenY=   524075309
 Requested convergence on RMS density matrix=1.00D-08 within 128 cycles.
 Requested convergence on MAX density matrix=1.00D-06.
 Requested convergence on             energy=1.00D-06.
 No special actions if energy rises.
 Fock matrices will be formed incrementally for  20 cycles.
 Integral accuracy reduced to 1.0D-05 until final iterations.

 Cycle   1  Pass 0  IDiag  1:
 FoFJK:  IHMeth= 1 ICntrl=       0 DoSepK=F KAlg= 0 I1Cent=           0 FoldK=F
 IRaf= 660000000 NMat=       1 IRICut=       1 DoRegI=T DoRafI=F ISym2E= 0 IDoP0=0 IntGTp=1.
 FoFCou: FMM=F IPFlag=           0 FMFlag=      100000 FMFlg1=           0
         NFxFlg=           0 DoJE=F BraDBF=F KetDBF=F FulRan=T
         wScrn=  0.000000 ICntrl=         0 IOpCl=  0 I1Cent=           0 NGrid=           0
         NMat0=    1 NMatS0=      1 NMatT0=    0 NMatD0=    1 NMtDS0=    0 NMtDT0=    0
 Symmetry not used in FoFCou.
 E= -668.739865550981    
 DIIS: error= 5.47D-02 at cycle   1 NSaved=   1.
 NSaved= 1 IEnMin= 1 EnMin= -668.739865550981     IErMin= 1 ErrMin= 5.47D-02
 ErrMax= 5.47D-02  0.00D+00 EMaxC= 1.00D-01 BMatC= 1.17D+00 BMatP= 1.17D+00
 IDIUse=3 WtCom= 4.53D-01 WtEn= 5.47D-01
 Coeff-Com:  0.100D+01
 Coeff-En:   0.100D+01
 Coeff:      0.100D+01
 Gap=     0.555 Goal=   None    Shift=    0.000
 GapD=    0.555 DampG=2.000 DampE=0.500 DampFc=1.0000 IDamp=-1.
 RMSDP=4.59D-03 MaxDP=1.17D-01              OVMax= 1.51D-01

 Cycle   2  Pass 0  IDiag  1:
 RMSU=  4.47D-03    CP:  9.48D-01
 E= -669.358369715888     Delta-E=       -0.618504164907 Rises=F Damp=F
 DIIS: error= 3.67D-02 at cycle   2 NSaved=   2.
 NSaved= 2 IEnMin= 2 EnMin= -669.358369715888     IErMin= 2 ErrMin= 3.67D-02
 ErrMax= 3.67D-02  0.00D+00 EMaxC= 1.00D-01 BMatC= 2.18D-01 BMatP= 1.17D+00
 IDIUse=3 WtCom= 6.33D-01 WtEn= 3.67D-01
 Coeff-Com:  0.247D+00 0.753D+00
 Coeff-En:   0.000D+00 0.100D+01
 Coeff:      0.156D+00 0.844D+00
 Gap=     0.582 Goal=   None    Shift=    0.000
 RMSDP=1.85D-03 MaxDP=8.84D-02 DE=-6.19D-01 OVMax= 1.25D-01

 Cycle   3  Pass 0  IDiag  1:
 RMSU=  1.46D-03    CP:  9.57D-01  7.50D-01
 E= -669.503313898737     Delta-E=       -0.144944182849 Rises=F Damp=F
 DIIS: error= 2.00D-02 at cycle   3 NSaved=   3.
 NSaved= 3 IEnMin= 3 EnMin= -669.503313898737     IErMin= 3 ErrMin= 2.00D-02
 ErrMax= 2.00D-02  0.00D+00 EMaxC= 1.00D-01 BMatC= 4.18D-02 BMatP= 2.18D-01
 IDIUse=3 WtCom= 8.00D-01 WtEn= 2.00D-01
 Coeff-Com: -0.969D-02 0.286D+00 0.724D+00
 Coeff-En:   0.000D+00 0.000D+00 0.100D+01
 Coeff:     -0.775D-02 0.229D+00 0.779D+00
 Gap=     0.426 Goal=   None    Shift=    0.000
 RMSDP=6.52D-04 MaxDP=3.51D-02 DE=-1.45D-01 OVMax= 5.55D-02

 Cycle   4  Pass 0  IDiag  1:
 RMSU=  4.10D-04    CP:  9.55D-01  8.37D-01  7.79D-01
 E= -669.532396691947     Delta-E=       -0.029082793210 Rises=F Damp=F
 DIIS: error= 6.81D-03 at cycle   4 NSaved=   4.
 NSaved= 4 IEnMin= 4 EnMin= -669.532396691947     IErMin= 4 ErrMin= 6.81D-03
 ErrMax= 6.81D-03  0.00D+00 EMaxC= 1.00D-01 BMatC= 3.95D-03 BMatP= 4.18D-02
 IDIUse=3 WtCom= 9.32D-01 WtEn= 6.81D-02
 Coeff-Com: -0.134D-01 0.465D-01 0.307D+00 0.660D+00
 Coeff-En:   0.000D+00 0.000D+00 0.000D+00 0.100D+01
 Coeff:     -0.125D-01 0.434D-01 0.286D+00 0.683D+00
 Gap=     0.412 Goal=   None    Shift=    0.000
 RMSDP=1.92D-04 MaxDP=1.12D-02 DE=-2.91D-02 OVMax= 1.70D-02

 Cycle   5  Pass 0  IDiag  1:
 RMSU=  9.93D-05    CP:  9.55D-01  8.35D-01  8.63D-01  7.34D-01
 E= -669.535452123001     Delta-E=       -0.003055431055 Rises=F Damp=F
 DIIS: error= 6.08D-04 at cycle   5 NSaved=   5.
 NSaved= 5 IEnMin= 5 EnMin= -669.535452123001     IErMin= 5 ErrMin= 6.08D-04
 ErrMax= 6.08D-04  0.00D+00 EMaxC= 1.00D-01 BMatC= 7.66D-05 BMatP= 3.95D-03
 IDIUse=3 WtCom= 9.94D-01 WtEn= 6.08D-03
 Coeff-Com:  0.210D-02-0.213D-01-0.801D-01-0.136D-01 0.111D+01
 Coeff-En:   0.000D+00 0.000D+00 0.000D+00 0.000D+00 0.100D+01
 Coeff:      0.209D-02-0.212D-01-0.796D-01-0.135D-01 0.111D+01
 Gap=     0.414 Goal=   None    Shift=    0.000
 RMSDP=5.40D-05 MaxDP=2.08D-03 DE=-3.06D-03 OVMax= 4.88D-03

 Cycle   6  Pass 0  IDiag  1:
 RMSU=  2.46D-05    CP:  9.55D-01  8.37D-01  8.74D-01  8.24D-01  1.24D+00
 E= -669.535573413700     Delta-E=       -0.000121290699 Rises=F Damp=F
 DIIS: error= 1.85D-04 at cycle   6 NSaved=   6.
 NSaved= 6 IEnMin= 6 EnMin= -669.535573413700     IErMin= 6 ErrMin= 1.85D-04
 ErrMax= 1.85D-04  0.00D+00 EMaxC= 1.00D-01 BMatC= 5.76D-06 BMatP= 7.66D-05
 IDIUse=3 WtCom= 9.98D-01 WtEn= 1.85D-03
 Coeff-Com:  0.124D-02-0.697D-02-0.345D-01-0.468D-01 0.138D+00 0.949D+00
 Coeff-En:   0.000D+00 0.000D+00 0.000D+00 0.000D+00 0.000D+00 0.100D+01
 Coeff:      0.123D-02-0.695D-02-0.345D-01-0.467D-01 0.138D+00 0.949D+00
 Gap=     0.414 Goal=   None    Shift=    0.000
 RMSDP=1.72D-05 MaxDP=5.80D-04 DE=-1.21D-04 OVMax= 1.67D-03

 Cycle   7  Pass 0  IDiag  1:
 RMSU=  8.72D-06    CP:  9.55D-01  8.38D-01  8.77D-01  8.35D-01  1.36D+00
                    CP:  1.17D+00
 E= -669.535588012191     Delta-E=       -0.000014598491 Rises=F Damp=F
 DIIS: error= 1.58D-04 at cycle   7 NSaved=   7.
 NSaved= 7 IEnMin= 7 EnMin= -669.535588012191     IErMin= 7 ErrMin= 1.58D-04
 ErrMax= 1.58D-04  0.00D+00 EMaxC= 1.00D-01 BMatC= 1.14D-06 BMatP= 5.76D-06
 IDIUse=3 WtCom= 9.98D-01 WtEn= 1.58D-03
 Coeff-Com: -0.252D-03 0.261D-02 0.979D-02 0.265D-02-0.151D+00 0.212D-01
 Coeff-Com:  0.112D+01
 Coeff-En:   0.000D+00 0.000D+00 0.000D+00 0.000D+00 0.000D+00 0.000D+00
 Coeff-En:   0.100D+01
 Coeff:     -0.251D-03 0.261D-02 0.978D-02 0.265D-02-0.151D+00 0.212D-01
 Coeff:      0.112D+01
 Gap=     0.414 Goal=   None    Shift=    0.000
 RMSDP=8.81D-06 MaxDP=5.37D-04 DE=-1.46D-05 OVMax= 1.33D-03

 Initial convergence to 1.0D-05 achieved.  Increase integral accuracy.
 Cycle   8  Pass 1  IDiag  1:
 E= -669.535593405787     Delta-E=       -0.000005393596 Rises=F Damp=F
 DIIS: error= 5.86D-05 at cycle   1 NSaved=   1.
 NSaved= 1 IEnMin= 1 EnMin= -669.535593405787     IErMin= 1 ErrMin= 5.86D-05
 ErrMax= 5.86D-05  0.00D+00 EMaxC= 1.00D-01 BMatC= 3.13D-07 BMatP= 3.13D-07
 IDIUse=1 WtCom= 1.00D+00 WtEn= 0.00D+00
 Coeff-Com:  0.100D+01
 Coeff:      0.100D+01
 Gap=     0.414 Goal=   None    Shift=    0.000
 RMSDP=8.81D-06 MaxDP=5.37D-04 DE=-5.39D-06 OVMax= 5.26D-04

 Cycle   9  Pass 1  IDiag  1:
 RMSU=  6.48D-06    CP:  1.00D+00
 E= -669.535594356348     Delta-E=       -0.000000950560 Rises=F Damp=F
 DIIS: error= 5.76D-05 at cycle   2 NSaved=   2.
 NSaved= 2 IEnMin= 2 EnMin= -669.535594356348     IErMin= 2 ErrMin= 5.76D-05
 ErrMax= 5.76D-05  0.00D+00 EMaxC= 1.00D-01 BMatC= 1.11D-07 BMatP= 3.13D-07
 IDIUse=1 WtCom= 1.00D+00 WtEn= 0.00D+00
 Coeff-Com: -0.608D-02 0.101D+01
 Coeff:     -0.608D-02 0.101D+01
 Gap=     0.414 Goal=   None    Shift=    0.000
 RMSDP=2.26D-06 MaxDP=1.19D-04 DE=-9.51D-07 OVMax= 3.83D-04

 Cycle  10  Pass 1  IDiag  1:
 RMSU=  1.98D-06    CP:  1.00D+00  1.17D+00
 E= -669.535594757202     Delta-E=       -0.000000400855 Rises=F Damp=F
 DIIS: error= 2.72D-05 at cycle   3 NSaved=   3.
 NSaved= 3 IEnMin= 3 EnMin= -669.535594757202     IErMin= 3 ErrMin= 2.72D-05
 ErrMax= 2.72D-05  0.00D+00 EMaxC= 1.00D-01 BMatC= 5.06D-08 BMatP= 1.11D-07
 IDIUse=1 WtCom= 1.00D+00 WtEn= 0.00D+00
 Coeff-Com: -0.478D+00 0.934D-01 0.138D+01
 Coeff:     -0.478D+00 0.934D-01 0.138D+01
 Gap=     0.414 Goal=   None    Shift=    0.000
 RMSDP=2.85D-06 MaxDP=1.14D-04 DE=-4.01D-07 OVMax= 4.26D-04

 Cycle  11  Pass 1  IDiag  1:
 RMSU=  1.48D-06    CP:  1.00D+00  1.41D+00  1.95D+00
 E= -669.535595043895     Delta-E=       -0.000000286693 Rises=F Damp=F
 DIIS: error= 1.11D-05 at cycle   4 NSaved=   4.
 NSaved= 4 IEnMin= 4 EnMin= -669.535595043895     IErMin= 4 ErrMin= 1.11D-05
 ErrMax= 1.11D-05  0.00D+00 EMaxC= 1.00D-01 BMatC= 4.29D-09 BMatP= 5.06D-08
 IDIUse=1 WtCom= 1.00D+00 WtEn= 0.00D+00
 Coeff-Com: -0.566D-03-0.200D+00-0.129D-01 0.121D+01
 Coeff:     -0.566D-03-0.200D+00-0.129D-01 0.121D+01
 Gap=     0.414 Goal=   None    Shift=    0.000
 RMSDP=1.08D-06 MaxDP=4.74D-05 DE=-2.87D-07 OVMax= 1.72D-04

 Cycle  12  Pass 1  IDiag  1:
 RMSU=  1.81D-07    CP:  1.00D+00  1.47D+00  2.41D+00  1.28D+00
 E= -669.535595070202     Delta-E=       -0.000000026306 Rises=F Damp=F
 DIIS: error= 1.53D-06 at cycle   5 NSaved=   5.
 NSaved= 5 IEnMin= 5 EnMin= -669.535595070202     IErMin= 5 ErrMin= 1.53D-06
 ErrMax= 1.53D-06  0.00D+00 EMaxC= 1.00D-01 BMatC= 5.00D-10 BMatP= 4.29D-09
 IDIUse=1 WtCom= 1.00D+00 WtEn= 0.00D+00
 Coeff-Com:  0.262D-01-0.793D-01-0.734D-01 0.448D+00 0.679D+00
 Coeff:      0.262D-01-0.793D-01-0.734D-01 0.448D+00 0.679D+00
 Gap=     0.414 Goal=   None    Shift=    0.000
 RMSDP=9.49D-08 MaxDP=3.10D-06 DE=-2.63D-08 OVMax= 1.09D-05

 Cycle  13  Pass 1  IDiag  1:
 RMSU=  7.05D-08    CP:  1.00D+00  1.47D+00  2.43D+00  1.31D+00  1.03D+00
 E= -669.535595070752     Delta-E=       -0.000000000550 Rises=F Damp=F
 DIIS: error= 1.19D-06 at cycle   6 NSaved=   6.
 NSaved= 6 IEnMin= 6 EnMin= -669.535595070752     IErMin= 6 ErrMin= 1.19D-06
 ErrMax= 1.19D-06  0.00D+00 EMaxC= 1.00D-01 BMatC= 3.71D-11 BMatP= 5.00D-10
 IDIUse=1 WtCom= 1.00D+00 WtEn= 0.00D+00
 Coeff-Com: -0.277D-03 0.324D-01 0.276D-02-0.202D+00-0.702D-01 0.124D+01
 Coeff:     -0.277D-03 0.324D-01 0.276D-02-0.202D+00-0.702D-01 0.124D+01
 Gap=     0.414 Goal=   None    Shift=    0.000
 RMSDP=5.54D-08 MaxDP=2.96D-06 DE=-5.50D-10 OVMax= 6.74D-06

 Cycle  14  Pass 1  IDiag  1:
 RMSU=  2.32D-08    CP:  1.00D+00  1.47D+00  2.44D+00  1.32D+00  1.21D+00
                    CP:  1.33D+00
 E= -669.535595070902     Delta-E=       -0.000000000150 Rises=F Damp=F
 DIIS: error= 2.01D-07 at cycle   7 NSaved=   7.
 NSaved= 7 IEnMin= 7 EnMin= -669.535595070902     IErMin= 7 ErrMin= 2.01D-07
 ErrMax= 2.01D-07  0.00D+00 EMaxC= 1.00D-01 BMatC= 7.06D-12 BMatP= 3.71D-11
 IDIUse=1 WtCom= 1.00D+00 WtEn= 0.00D+00
 Coeff-Com: -0.292D-02 0.137D-01 0.934D-02-0.836D-01-0.119D+00 0.274D+00
 Coeff-Com:  0.909D+00
 Coeff:     -0.292D-02 0.137D-01 0.934D-02-0.836D-01-0.119D+00 0.274D+00
 Coeff:      0.909D+00
 Gap=     0.414 Goal=   None    Shift=    0.000
 RMSDP=1.54D-08 MaxDP=7.26D-07 DE=-1.50D-10 OVMax= 1.31D-06

 Cycle  15  Pass 1  IDiag  1:
 RMSU=  8.65D-09    CP:  1.00D+00  1.47D+00  2.44D+00  1.32D+00  1.24D+00
                    CP:  1.46D+00  1.15D+00
 E= -669.535595070897     Delta-E=        0.000000000005 Rises=F Damp=F
 DIIS: error= 1.06D-07 at cycle   8 NSaved=   8.
 NSaved= 8 IEnMin= 7 EnMin= -669.535595070902     IErMin= 8 ErrMin= 1.06D-07
 ErrMax= 1.06D-07  0.00D+00 EMaxC= 1.00D-01 BMatC= 6.22D-13 BMatP= 7.06D-12
 IDIUse=1 WtCom= 1.00D+00 WtEn= 0.00D+00
 Coeff-Com:  0.751D-03-0.810D-02-0.209D-02 0.485D-01 0.215D-01-0.192D+00
 Coeff-Com: -0.269D+00 0.140D+01
 Coeff:      0.751D-03-0.810D-02-0.209D-02 0.485D-01 0.215D-01-0.192D+00
 Coeff:     -0.269D+00 0.140D+01
 Gap=     0.414 Goal=   None    Shift=    0.000
 RMSDP=6.90D-09 MaxDP=5.08D-07 DE= 5.00D-12 OVMax= 8.36D-07

 SCF Done:  E(RHF) =  -669.535595071     A.U. after   15 cycles
            NFock= 15  Conv=0.69D-08     -V/T= 2.0024
 KE= 6.679610949909D+02 PE=-3.292647944977D+03 EE= 1.090253148898D+03
 Leave Link  502 at Wed May  5 18:26:38 2021, MaxMem=   524288000 cpu:              86.0 elap:              44.4
 (Enter /opt/gaussian/g16_legacy/l801.exe)
 ExpMin= 1.61D-01 ExpMax= 5.48D+03 ExpMxC= 8.25D+02 IAcc=3 IRadAn=         5 AccDes= 0.00D+00
 HarFok:  IExCor=  205 AccDes= 0.00D+00 IRadAn=         5 IDoV=-2 UseB2=F ITyADJ=14
 ICtDFT= 12500011 ScaDFX=  1.000000  1.000000  1.000000  1.000000
 Largest valence mixing into a core orbital is  1.96D-04
 Largest core mixing into a valence orbital is  4.00D-05
 Range of M.O.s used for correlation:    16   263
 NBasis=   263 NAE=    57 NBE=    57 NFC=    15 NFV=     0
 NROrb=    248 NOA=    42 NOB=    42 NVA=   206 NVB=   206
 Leave Link  801 at Wed May  5 18:26:39 2021, MaxMem=   524288000 cpu:               2.0 elap:               1.2
 (Enter /opt/gaussian/g16_legacy/l906.exe)
 FulOut=F Deriv=F AODrv=F NAtomX=    34
   MMem=         113  MDisk=          42 MDiskD=          42
  W3Min=     2275476 MinDsk=     2420380 NBas6D=         263
 NBas2D=       35121    NTT=       34716    LW2=     2000000
    MDV=   523964149 MDiskM=       27564 NBas2p=       21275
 Fully direct method using O(OVN) memory.
 IMap=   1   2   3   4   5   6   7   8   9  10  11  12  13  14  15  16  17  18  19  20
 IMap=  21  22  23  24  25  26  27  28  29  30  31  32  33  34  35  36  37  38  39  40
 IMap=  41  42
 JobTyp=1 Pass  1:  I=   1 to  42 NPSUse=  2 ParTrn=T ParDer=T DoDerP=F.
 Spin components of T(2) and E(2):
     alpha-alpha T2 =       0.9484086985D-01 E2=     -0.2717618295D+00
     alpha-beta  T2 =       0.5258111914D+00 E2=     -0.1547276907D+01
     beta-beta   T2 =       0.9484086985D-01 E2=     -0.2717618295D+00
 The integrals were generated   1 times.
 ANorm=    0.1309768274D+01
 E2 =    -0.2090800566D+01 EUMP2 =    -0.67162639563671D+03
 Leave Link  906 at Wed May  5 18:27:35 2021, MaxMem=   524288000 cpu:             110.4 elap:              55.4
 (Enter /opt/gaussian/g16_legacy/l601.exe)
 Copying SCF densities to generalized density rwf, IOpCl= 0 IROHF=0.

 **********************************************************************

            Population analysis using the SCF density.

 **********************************************************************

 Orbital symmetries:
       Occupied  (A) (A) (A) (A) (A) (A) (A) (A) (A) (A) (A) (A)
                 (A) (A) (A) (A) (A) (A) (A) (A) (A) (A) (A) (A)
                 (A) (A) (A) (A) (A) (A) (A) (A) (A) (A) (A) (A)
                 (A) (A) (A) (A) (A) (A) (A) (A) (A) (A) (A) (A)
                 (A) (A) (A) (A) (A) (A) (A) (A) (A)
       Virtual   (A) (A) (A) (A) (A) (A) (A) (A) (A) (A) (A) (A)
                 (A) (A) (A) (A) (A) (A) (A) (A) (A) (A) (A) (A)
                 (A) (A) (A) (A) (A) (A) (A) (A) (A) (A) (A) (A)
                 (A) (A) (A) (A) (A) (A) (A) (A) (A) (A) (A) (A)
                 (A) (A) (A) (A) (A) (A) (A) (A) (A) (A) (A) (A)
                 (A) (A) (A) (A) (A) (A) (A) (A) (A) (A) (A) (A)
                 (A) (A) (A) (A) (A) (A) (A) (A) (A) (A) (A) (A)
                 (A) (A) (A) (A) (A) (A) (A) (A) (A) (A) (A) (A)
                 (A) (A) (A) (A) (A) (A) (A) (A) (A) (A) (A) (A)
                 (A) (A) (A) (A) (A) (A) (A) (A) (A) (A) (A) (A)
                 (A) (A) (A) (A) (A) (A) (A) (A) (A) (A) (A) (A)
                 (A) (A) (A) (A) (A) (A) (A) (A) (A) (A) (A) (A)
                 (A) (A) (A) (A) (A) (A) (A) (A) (A) (A) (A) (A)
                 (A) (A) (A) (A) (A) (A) (A) (A) (A) (A) (A) (A)
                 (A) (A) (A) (A) (A) (A) (A) (A) (A) (A) (A) (A)
                 (A) (A) (A) (A) (A) (A) (A) (A) (A) (A) (A) (A)
                 (A) (A) (A) (A) (A) (A) (A) (A) (A) (A) (A) (A)
                 (A) (A)
 The electronic state is 1-A.
 Alpha  occ. eigenvalues --  -20.60720 -20.60715 -15.85772 -11.31123 -11.27694
 Alpha  occ. eigenvalues --  -11.27682 -11.27417 -11.26705 -11.26645 -11.22378
 Alpha  occ. eigenvalues --  -11.22177 -11.22042 -11.21981 -11.21849 -11.21363
 Alpha  occ. eigenvalues --   -1.59796  -1.39350  -1.19292  -1.09024  -1.08686
 Alpha  occ. eigenvalues --   -1.04694  -1.04150  -0.96628  -0.95525  -0.87657
 Alpha  occ. eigenvalues --   -0.86087  -0.82360  -0.80232  -0.78805  -0.77410
 Alpha  occ. eigenvalues --   -0.71991  -0.71119  -0.70396  -0.65655  -0.64941
 Alpha  occ. eigenvalues --   -0.64710  -0.62081  -0.61521  -0.60002  -0.58214
 Alpha  occ. eigenvalues --   -0.55934  -0.55183  -0.53340  -0.53176  -0.53016
 Alpha  occ. eigenvalues --   -0.52653  -0.50559  -0.48763  -0.48748  -0.48513
 Alpha  occ. eigenvalues --   -0.47239  -0.46354  -0.46250  -0.44759  -0.44388
 Alpha  occ. eigenvalues --   -0.37268  -0.36294
 Alpha virt. eigenvalues --    0.05121   0.11314   0.16594   0.20510   0.22425
 Alpha virt. eigenvalues --    0.23774   0.25535   0.26200   0.27125   0.28146
 Alpha virt. eigenvalues --    0.28924   0.30176   0.31001   0.31389   0.32071
 Alpha virt. eigenvalues --    0.32604   0.33470   0.34064   0.34283   0.34402
 Alpha virt. eigenvalues --    0.35481   0.35963   0.36621   0.38381   0.39127
 Alpha virt. eigenvalues --    0.40114   0.43266   0.44437   0.44992   0.45552
 Alpha virt. eigenvalues --    0.46623   0.47281   0.49400   0.51470   0.56772
 Alpha virt. eigenvalues --    0.67393   0.68517   0.68824   0.69681   0.70475
 Alpha virt. eigenvalues --    0.71129   0.72040   0.74426   0.75874   0.77421
 Alpha virt. eigenvalues --    0.78013   0.78579   0.79092   0.79279   0.79963
 Alpha virt. eigenvalues --    0.80794   0.80913   0.81964   0.84603   0.85936
 Alpha virt. eigenvalues --    0.86219   0.87283   0.88019   0.88396   0.93721
 Alpha virt. eigenvalues --    0.95312   0.95784   0.96748   0.98021   1.00607
 Alpha virt. eigenvalues --    1.01072   1.01945   1.04453   1.04592   1.06781
 Alpha virt. eigenvalues --    1.06821   1.08557   1.08699   1.10263   1.11045
 Alpha virt. eigenvalues --    1.11788   1.15314   1.15992   1.16552   1.16781
 Alpha virt. eigenvalues --    1.17226   1.18074   1.18612   1.19915   1.19990
 Alpha virt. eigenvalues --    1.20407   1.20655   1.21196   1.21273   1.22179
 Alpha virt. eigenvalues --    1.23022   1.23389   1.23626   1.24212   1.26341
 Alpha virt. eigenvalues --    1.27772   1.28352   1.30825   1.31327   1.31875
 Alpha virt. eigenvalues --    1.34372   1.39610   1.40928   1.46702   1.47139
 Alpha virt. eigenvalues --    1.52610   1.53520   1.55072   1.60307   1.65024
 Alpha virt. eigenvalues --    1.65480   1.66693   1.66815   1.67272   1.67871
 Alpha virt. eigenvalues --    1.70745   1.72237   1.72670   1.73364   1.73685
 Alpha virt. eigenvalues --    1.75623   1.78904   1.80608   1.92076   1.97023
 Alpha virt. eigenvalues --    1.99365   1.99889   2.04459   2.04634   2.04682
 Alpha virt. eigenvalues --    2.10108   2.12491   2.12555   2.13279   2.14295
 Alpha virt. eigenvalues --    2.17197   2.21666   2.21740   2.21907   2.24750
 Alpha virt. eigenvalues --    2.25083   2.25166   2.27114   2.27495   2.32259
 Alpha virt. eigenvalues --    2.32951   2.33334   2.35747   2.36180   2.37720
 Alpha virt. eigenvalues --    2.38946   2.42485   2.43035   2.43356   2.44662
 Alpha virt. eigenvalues --    2.45792   2.46913   2.56185   2.56304   2.58180
 Alpha virt. eigenvalues --    2.58663   2.58971   2.59640   2.66596   2.67122
 Alpha virt. eigenvalues --    2.67136   2.70262   2.76375   2.76977   2.79615
 Alpha virt. eigenvalues --    2.81441   2.83551   2.90839   2.91939   2.92017
 Alpha virt. eigenvalues --    2.92523   2.94424   2.98354   2.99936   3.04772
 Alpha virt. eigenvalues --    3.04952   3.07059   3.10700   3.13376   3.18064
 Alpha virt. eigenvalues --    3.23574   3.24586   3.27665   3.43134   3.52971
 Alpha virt. eigenvalues --    3.77071   4.13063   4.28693   4.37886   4.48183
 Alpha virt. eigenvalues --    4.50870   4.52981   4.54857   4.61900   4.71482
 Alpha virt. eigenvalues --    4.72174   4.76734   4.79254   4.87197   4.99077
 Alpha virt. eigenvalues --    5.09004
          Condensed to atoms (all electrons):
               1          2          3          4          5          6
     1  C    5.084539   0.352235  -0.057713   0.395876   0.395684  -0.043213
     2  C    0.352235   5.059544   0.339059  -0.042087  -0.042344   0.399360
     3  C   -0.057713   0.339059   5.108739  -0.002880  -0.002826  -0.039767
     4  H    0.395876  -0.042087  -0.002880   0.567296  -0.031768  -0.002963
     5  H    0.395684  -0.042344  -0.002826  -0.031768   0.569118   0.004563
     6  H   -0.043213   0.399360  -0.039767  -0.002963   0.004563   0.560078
     7  H   -0.043233   0.399529  -0.039668   0.004539  -0.002969  -0.031130
     8  H   -0.003693  -0.038011   0.388767   0.000134   0.002566   0.004176
     9  H   -0.003687  -0.038630   0.391142   0.002639   0.000170  -0.002935
    10  H    0.004328  -0.034932   0.393606  -0.000059  -0.000060  -0.002462
    11  C    0.356047  -0.051773   0.004052  -0.041281  -0.041341  -0.003117
    12  C   -0.051826   0.003976  -0.000086  -0.003205  -0.003218  -0.000064
    13  C    0.004077  -0.000085   0.000001  -0.000053  -0.000053  -0.000001
    14  H   -0.041930  -0.003302  -0.000048  -0.002807   0.004472   0.002383
    15  H   -0.041760  -0.003279  -0.000050   0.004448  -0.002806   0.000234
    16  H   -0.003262  -0.000064  -0.000000   0.002399   0.000239   0.000017
    17  H   -0.003280  -0.000064  -0.000000   0.000239   0.002400  -0.000003
    18  H   -0.000069  -0.000000  -0.000000  -0.000001   0.000013   0.000000
    19  H   -0.000069  -0.000000  -0.000000   0.000013  -0.000001  -0.000002
    20  H   -0.000087   0.000001  -0.000000   0.000001   0.000001   0.000000
    21  C    0.000000   0.000000   0.000023  -0.000000   0.000000   0.000000
    22  C    0.000000  -0.000000   0.000000   0.000000   0.000000   0.000000
    23  C   -0.000000  -0.000000   0.000000  -0.000000  -0.000000  -0.000000
    24  C    0.000000   0.000000   0.000000   0.000000   0.000000   0.000000
    25  C    0.000000  -0.000000   0.000001   0.000000   0.000000   0.000000
    26  C   -0.000001   0.000018  -0.000900  -0.000001  -0.000005  -0.000000
    27  H    0.000000  -0.000000   0.000035  -0.000000  -0.000000   0.000000
    28  H   -0.000000  -0.000000   0.000000   0.000000   0.000000   0.000000
    29  H   -0.000000   0.000000  -0.000000  -0.000000  -0.000000  -0.000000
    30  H   -0.000000  -0.000000   0.000000  -0.000000   0.000000   0.000000
    31  H    0.000005  -0.000033   0.000735   0.000004   0.000022   0.000001
    32  N   -0.000000   0.000000  -0.000000  -0.000000  -0.000000  -0.000000
    33  O   -0.000000   0.000000   0.000000   0.000000  -0.000000  -0.000000
    34  O   -0.000000   0.000000  -0.000000  -0.000000  -0.000000  -0.000000
               7          8          9         10         11         12
     1  C   -0.043233  -0.003693  -0.003687   0.004328   0.356047  -0.051826
     2  C    0.399529  -0.038011  -0.038630  -0.034932  -0.051773   0.003976
     3  C   -0.039668   0.388767   0.391142   0.393606   0.004052  -0.000086
     4  H    0.004539   0.000134   0.002639  -0.000059  -0.041281  -0.003205
     5  H   -0.002969   0.002566   0.000170  -0.000060  -0.041341  -0.003218
     6  H   -0.031130   0.004176  -0.002935  -0.002462  -0.003117  -0.000064
     7  H    0.559266  -0.003128   0.004215  -0.002477  -0.003105  -0.000064
     8  H   -0.003128   0.555194  -0.031768  -0.027097  -0.000066  -0.000001
     9  H    0.004215  -0.031768   0.552724  -0.027505  -0.000074  -0.000000
    10  H   -0.002477  -0.027097  -0.027505   0.533225  -0.000084   0.000001
    11  C   -0.003105  -0.000066  -0.000074  -0.000084   5.082913   0.351828
    12  C   -0.000064  -0.000001  -0.000000   0.000001   0.351828   5.060705
    13  C   -0.000001   0.000000  -0.000000  -0.000000  -0.057253   0.340735
    14  H    0.000233  -0.000002   0.000013   0.000001   0.396387  -0.041707
    15  H    0.002377   0.000013  -0.000001   0.000001   0.396422  -0.041557
    16  H   -0.000003   0.000000  -0.000002   0.000000  -0.043776   0.399130
    17  H    0.000017  -0.000002   0.000000   0.000000  -0.043695   0.399231
    18  H   -0.000002   0.000000  -0.000000  -0.000000  -0.003826  -0.038910
    19  H    0.000000  -0.000000   0.000000  -0.000000  -0.003833  -0.038976
    20  H    0.000000  -0.000000  -0.000000   0.000000   0.004392  -0.035751
    21  C   -0.000000   0.000074  -0.000002  -0.000005  -0.000000   0.000000
    22  C    0.000000  -0.000000   0.000000  -0.000000  -0.000000   0.000000
    23  C   -0.000000  -0.000000  -0.000000   0.000000   0.000000   0.000000
    24  C   -0.000000  -0.000000  -0.000000  -0.000000  -0.000000  -0.000000
    25  C    0.000000   0.000063   0.000001   0.000000  -0.000000  -0.000000
    26  C   -0.000001  -0.000166  -0.000070   0.000074   0.000000   0.000000
    27  H    0.000000  -0.000005   0.000010   0.000012  -0.000000   0.000000
    28  H    0.000000   0.000000  -0.000000  -0.000000  -0.000000  -0.000000
    29  H   -0.000000  -0.000000  -0.000000   0.000000   0.000000   0.000000
    30  H   -0.000000   0.000004  -0.000000   0.000000   0.000000  -0.000000
    31  H    0.000003   0.001569   0.000399  -0.000096  -0.000000   0.000000
    32  N   -0.000000   0.000000  -0.000000   0.000000   0.000000   0.000000
    33  O    0.000000   0.000000   0.000000  -0.000000  -0.000000   0.000000
    34  O    0.000000  -0.000000   0.000000   0.000000   0.000000   0.000000
              13         14         15         16         17         18
     1  C    0.004077  -0.041930  -0.041760  -0.003262  -0.003280  -0.000069
     2  C   -0.000085  -0.003302  -0.003279  -0.000064  -0.000064  -0.000000
     3  C    0.000001  -0.000048  -0.000050  -0.000000  -0.000000  -0.000000
     4  H   -0.000053  -0.002807   0.004448   0.002399   0.000239  -0.000001
     5  H   -0.000053   0.004472  -0.002806   0.000239   0.002400   0.000013
     6  H   -0.000001   0.002383   0.000234   0.000017  -0.000003   0.000000
     7  H   -0.000001   0.000233   0.002377  -0.000003   0.000017  -0.000002
     8  H    0.000000  -0.000002   0.000013   0.000000  -0.000002   0.000000
     9  H   -0.000000   0.000013  -0.000001  -0.000002   0.000000  -0.000000
    10  H   -0.000000   0.000001   0.000001   0.000000   0.000000  -0.000000
    11  C   -0.057253   0.396387   0.396422  -0.043776  -0.043695  -0.003826
    12  C    0.340735  -0.041707  -0.041557   0.399130   0.399231  -0.038910
    13  C    5.096707  -0.002809  -0.002810  -0.039749  -0.039658   0.391433
    14  H   -0.002809   0.565662  -0.031349  -0.002982   0.004553   0.000157
    15  H   -0.002810  -0.031349   0.564506   0.004550  -0.002965   0.002612
    16  H   -0.039749  -0.002982   0.004550   0.564255  -0.031635   0.004210
    17  H   -0.039658   0.004553  -0.002965  -0.031635   0.563160  -0.002889
    18  H    0.391433   0.000157   0.002612   0.004210  -0.002889   0.547530
    19  H    0.391313   0.002619   0.000157  -0.002893   0.004209  -0.029098
    20  H    0.394304  -0.000059  -0.000058  -0.002504  -0.002507  -0.027303
    21  C   -0.000000   0.000000   0.000000   0.000000   0.000000   0.000000
    22  C   -0.000000   0.000000   0.000000   0.000000   0.000000  -0.000000
    23  C    0.000000  -0.000000  -0.000000  -0.000000  -0.000000   0.000000
    24  C    0.000000   0.000000   0.000000   0.000000   0.000000   0.000000
    25  C   -0.000000   0.000000   0.000000   0.000000   0.000000  -0.000000
    26  C    0.000000  -0.000000  -0.000000  -0.000000  -0.000000   0.000000
    27  H   -0.000000  -0.000000  -0.000000  -0.000000  -0.000000  -0.000000
    28  H   -0.000000   0.000000   0.000000   0.000000   0.000000   0.000000
    29  H    0.000000  -0.000000  -0.000000  -0.000000  -0.000000   0.000000
    30  H    0.000000  -0.000000  -0.000000  -0.000000  -0.000000   0.000000
    31  H   -0.000000   0.000000   0.000000  -0.000000   0.000000  -0.000000
    32  N   -0.000000  -0.000000  -0.000000  -0.000000  -0.000000  -0.000000
    33  O   -0.000000   0.000000   0.000000  -0.000000   0.000000  -0.000000
    34  O    0.000000   0.000000  -0.000000   0.000000  -0.000000   0.000000
              19         20         21         22         23         24
     1  C   -0.000069  -0.000087   0.000000   0.000000  -0.000000   0.000000
     2  C   -0.000000   0.000001   0.000000  -0.000000  -0.000000   0.000000
     3  C   -0.000000  -0.000000   0.000023   0.000000   0.000000   0.000000
     4  H    0.000013   0.000001  -0.000000   0.000000  -0.000000   0.000000
     5  H   -0.000001   0.000001   0.000000   0.000000  -0.000000   0.000000
     6  H   -0.000002   0.000000   0.000000   0.000000  -0.000000   0.000000
     7  H    0.000000   0.000000  -0.000000   0.000000  -0.000000  -0.000000
     8  H   -0.000000  -0.000000   0.000074  -0.000000  -0.000000  -0.000000
     9  H    0.000000  -0.000000  -0.000002   0.000000  -0.000000  -0.000000
    10  H   -0.000000   0.000000  -0.000005  -0.000000   0.000000  -0.000000
    11  C   -0.003833   0.004392  -0.000000  -0.000000   0.000000  -0.000000
    12  C   -0.038976  -0.035751   0.000000   0.000000   0.000000  -0.000000
    13  C    0.391313   0.394304  -0.000000  -0.000000   0.000000   0.000000
    14  H    0.002619  -0.000059   0.000000   0.000000  -0.000000   0.000000
    15  H    0.000157  -0.000058   0.000000   0.000000  -0.000000   0.000000
    16  H   -0.002893  -0.002504   0.000000   0.000000  -0.000000   0.000000
    17  H    0.004209  -0.002507   0.000000   0.000000  -0.000000   0.000000
    18  H   -0.029098  -0.027303   0.000000  -0.000000   0.000000   0.000000
    19  H    0.548452  -0.027374  -0.000000   0.000000  -0.000000   0.000000
    20  H   -0.027374   0.535181   0.000000   0.000000  -0.000000  -0.000000
    21  C   -0.000000   0.000000   4.876411   0.542083  -0.045555  -0.028688
    22  C    0.000000   0.000000   0.542083   4.933171   0.522648  -0.040305
    23  C   -0.000000  -0.000000  -0.045555   0.522648   4.919550   0.548664
    24  C    0.000000  -0.000000  -0.028688  -0.040305   0.548664   4.820991
    25  C   -0.000000   0.000000  -0.045407  -0.030262  -0.053042   0.548137
    26  C   -0.000000  -0.000000   0.542665  -0.043574  -0.030290  -0.040003
    27  H   -0.000000   0.000000   0.381222  -0.028165   0.002176   0.000217
    28  H    0.000000   0.000000  -0.027761   0.382643  -0.027451   0.001564
    29  H    0.000000   0.000000   0.001930  -0.024126   0.368588  -0.019649
    30  H   -0.000000   0.000000   0.001917  -0.000055   0.002558  -0.019553
    31  H    0.000000   0.000000  -0.026591   0.002284   0.000206   0.001504
    32  N    0.000000   0.000000   0.000012   0.001504  -0.044590   0.244300
    33  O    0.000000   0.000000  -0.000003  -0.000028   0.003713  -0.087984
    34  O    0.000000   0.000000  -0.000003   0.000773   0.004036  -0.087950
              25         26         27         28         29         30
     1  C    0.000000  -0.000001   0.000000  -0.000000  -0.000000  -0.000000
     2  C   -0.000000   0.000018  -0.000000  -0.000000   0.000000  -0.000000
     3  C    0.000001  -0.000900   0.000035   0.000000  -0.000000   0.000000
     4  H    0.000000  -0.000001  -0.000000   0.000000  -0.000000  -0.000000
     5  H    0.000000  -0.000005  -0.000000   0.000000  -0.000000   0.000000
     6  H    0.000000  -0.000000   0.000000   0.000000  -0.000000   0.000000
     7  H    0.000000  -0.000001   0.000000   0.000000  -0.000000  -0.000000
     8  H    0.000063  -0.000166  -0.000005   0.000000  -0.000000   0.000004
     9  H    0.000001  -0.000070   0.000010  -0.000000  -0.000000  -0.000000
    10  H    0.000000   0.000074   0.000012  -0.000000   0.000000   0.000000
    11  C   -0.000000   0.000000  -0.000000  -0.000000   0.000000   0.000000
    12  C   -0.000000   0.000000   0.000000  -0.000000   0.000000  -0.000000
    13  C   -0.000000   0.000000  -0.000000  -0.000000   0.000000   0.000000
    14  H    0.000000  -0.000000  -0.000000   0.000000  -0.000000  -0.000000
    15  H    0.000000  -0.000000  -0.000000   0.000000  -0.000000  -0.000000
    16  H    0.000000  -0.000000  -0.000000   0.000000  -0.000000  -0.000000
    17  H    0.000000  -0.000000  -0.000000   0.000000  -0.000000  -0.000000
    18  H   -0.000000   0.000000  -0.000000   0.000000   0.000000   0.000000
    19  H   -0.000000  -0.000000  -0.000000   0.000000   0.000000  -0.000000
    20  H    0.000000  -0.000000   0.000000   0.000000   0.000000   0.000000
    21  C   -0.045407   0.542665   0.381222  -0.027761   0.001930   0.001917
    22  C   -0.030262  -0.043574  -0.028165   0.382643  -0.024126  -0.000055
    23  C   -0.053042  -0.030290   0.002176  -0.027451   0.368588   0.002558
    24  C    0.548137  -0.040003   0.000217   0.001564  -0.019649  -0.019553
    25  C    4.922572   0.521076   0.002180   0.000198   0.002574   0.368454
    26  C    0.521076   4.942617  -0.027659   0.002366  -0.000068  -0.024014
    27  H    0.002180  -0.027659   0.446308  -0.001199  -0.000071  -0.000071
    28  H    0.000198   0.002366  -0.001199   0.447802  -0.001115   0.000007
    29  H    0.002574  -0.000068  -0.000071  -0.001115   0.392945  -0.000076
    30  H    0.368454  -0.024014  -0.000071   0.000007  -0.000076   0.392945
    31  H   -0.027197   0.379496  -0.001111  -0.000092   0.000007  -0.000980
    32  N   -0.044573   0.001480   0.000002  -0.000049  -0.005357  -0.005353
    33  O    0.004047   0.000771   0.000000   0.000000   0.000048   0.009070
    34  O    0.003726  -0.000029   0.000000  -0.000001   0.009038   0.000048
              31         32         33         34
     1  C    0.000005  -0.000000  -0.000000  -0.000000
     2  C   -0.000033   0.000000   0.000000   0.000000
     3  C    0.000735  -0.000000   0.000000  -0.000000
     4  H    0.000004  -0.000000   0.000000  -0.000000
     5  H    0.000022  -0.000000  -0.000000  -0.000000
     6  H    0.000001  -0.000000  -0.000000  -0.000000
     7  H    0.000003  -0.000000   0.000000   0.000000
     8  H    0.001569   0.000000   0.000000  -0.000000
     9  H    0.000399  -0.000000   0.000000   0.000000
    10  H   -0.000096   0.000000  -0.000000   0.000000
    11  C   -0.000000   0.000000  -0.000000   0.000000
    12  C    0.000000   0.000000   0.000000   0.000000
    13  C   -0.000000  -0.000000  -0.000000   0.000000
    14  H    0.000000  -0.000000   0.000000   0.000000
    15  H    0.000000  -0.000000   0.000000  -0.000000
    16  H   -0.000000  -0.000000  -0.000000   0.000000
    17  H    0.000000  -0.000000   0.000000  -0.000000
    18  H   -0.000000  -0.000000  -0.000000   0.000000
    19  H    0.000000   0.000000   0.000000   0.000000
    20  H    0.000000   0.000000   0.000000   0.000000
    21  C   -0.026591   0.000012  -0.000003  -0.000003
    22  C    0.002284   0.001504  -0.000028   0.000773
    23  C    0.000206  -0.044590   0.003713   0.004036
    24  C    0.001504   0.244300  -0.087984  -0.087950
    25  C   -0.027197  -0.044573   0.004047   0.003726
    26  C    0.379496   0.001480   0.000771  -0.000029
    27  H   -0.001111   0.000002   0.000000   0.000000
    28  H   -0.000092  -0.000049   0.000000  -0.000001
    29  H    0.000007  -0.005357   0.000048   0.009038
    30  H   -0.000980  -0.005353   0.009070   0.000048
    31  H    0.437673  -0.000049  -0.000001   0.000000
    32  N   -0.000049   5.734701   0.314959   0.314929
    33  O   -0.000001   0.314959   8.303735  -0.087615
    34  O    0.000000   0.314929  -0.087615   8.303697
 Mulliken charges:
               1
     1  C   -0.298968
     2  C   -0.299115
     3  C   -0.482221
     4  H    0.149518
     5  H    0.148141
     6  H    0.154845
     7  H    0.155599
     8  H    0.151381
     9  H    0.153361
    10  H    0.163530
    11  C   -0.298815
    12  C   -0.300242
    13  C   -0.476100
    14  H    0.150515
    15  H    0.151314
    16  H    0.152071
    17  H    0.152888
    18  H    0.156144
    19  H    0.155484
    20  H    0.161764
    21  C   -0.172321
    22  C   -0.218592
    23  C   -0.171209
    24  C    0.158755
    25  C   -0.172548
    26  C   -0.223784
    27  H    0.226121
    28  H    0.223088
    29  H    0.275331
    30  H    0.275100
    31  H    0.232242
    32  N    0.488084
    33  O   -0.460710
    34  O   -0.460650
 Sum of Mulliken charges =  -0.00000
 Mulliken charges with hydrogens summed into heavy atoms:
               1
     1  C   -0.001310
     2  C    0.011329
     3  C   -0.013950
    11  C    0.003014
    12  C    0.004717
    13  C   -0.002709
    21  C    0.053800
    22  C    0.004496
    23  C    0.104122
    24  C    0.158755
    25  C    0.102552
    26  C    0.008459
    32  N    0.488084
    33  O   -0.460710
    34  O   -0.460650
 Electronic spatial extent (au):  <R**2>=           9219.8158
 Charge=             -0.0000 electrons
 Dipole moment (field-independent basis, Debye):
    X=              2.6569    Y=              4.5421    Z=             -0.8778  Tot=              5.3348
 Quadrupole moment (field-independent basis, Debye-Ang):
   XX=           -109.4440   YY=            -96.8384   ZZ=            -95.1019
   XY=            -19.6765   XZ=              2.8949   YZ=             -0.1329
 Traceless Quadrupole moment (field-independent basis, Debye-Ang):
   XX=             -8.9825   YY=              3.6230   ZZ=              5.3595
   XY=            -19.6765   XZ=              2.8949   YZ=             -0.1329
 Octapole moment (field-independent basis, Debye-Ang**2):
  XXX=             52.0696  YYY=             27.0244  ZZZ=              6.6605  XYY=             11.2044
  XXY=            101.8737  XXZ=            -18.5766  XZZ=             -6.2884  YZZ=             -9.7898
  YYZ=             -7.6909  XYZ=             -5.8344
 Hexadecapole moment (field-independent basis, Debye-Ang**3):
 XXXX=         -11536.2223 YYYY=          -1472.8093 ZZZZ=           -233.9231 XXXY=           -401.1171
 XXXZ=             45.9490 YYYX=            -86.8473 YYYZ=             -7.0031 ZZZX=            -24.3662
 ZZZY=             -5.5374 XXYY=          -2161.0139 XXZZ=          -1853.0492 YYZZ=           -282.8685
 XXYZ=             20.7893 YYXZ=             22.2146 ZZXY=             38.4607
 N-N= 8.648981060172D+02 E-N=-3.292647942247D+03  KE= 6.679610949909D+02
 Leave Link  601 at Wed May  5 18:27:35 2021, MaxMem=   524288000 cpu:               0.5 elap:               0.5
 (Enter /opt/gaussian/g16_legacy/l9999.exe)
 1\1\GINC-TRUENO91\SP\RMP2-FC\6-31G(d)\C12H19N1O2\JRAMOS\05-May-2021\0\
 \#p 6-31g* mp2\\Input file generated by CHIRIPA (05-May-2021 14:53:11)
 \\0,1\C,0,-0.666,-0.374,0.\C,0,-1.882,0.553,0.\C,0,-3.207,-0.21,0.\H,0
 ,-0.713,-1.03,-0.88\H,0,-0.713,-1.029,0.881\H,0,-1.832,1.207,-0.88\H,0
 ,-1.832,1.207,0.88\H,0,-3.283,-0.85,0.885\H,0,-3.283,-0.85,-0.885\H,0,
 -4.063,0.472,0.\C,0,0.666,0.374,0.\C,0,1.882,-0.553,0.\C,0,3.207,0.21,
 0.\H,0,0.713,1.029,-0.881\H,0,0.713,1.03,0.88\H,0,1.832,-1.207,-0.88\H
 ,0,1.832,-1.207,0.88\H,0,3.283,0.85,0.885\H,0,3.283,0.85,-0.885\H,0,4.
 063,-0.472,0.\C,0,-6.49148,-3.364516,1.232138\C,0,-7.548725,-3.974241,
 1.915503\C,0,-7.319774,-4.657023,3.11381\C,0,-6.015227,-4.710637,3.602
 25\C,0,-4.940975,-4.113326,2.944608\C,0,-5.193268,-3.435879,1.747962\H
 ,0,-6.6784,-2.836187,0.30191\H,0,-8.557961,-3.920437,1.517265\H,0,-8.1
 19824,-5.138027,3.66333\H,0,-3.945743,-4.184002,3.366431\H,0,-4.370265
 ,-2.963299,1.219398\N,0,-5.760491,-5.430644,4.869964\O,0,-4.602046,-5.
 46349,5.27931\O,0,-6.724098,-5.948505,5.430249\\Version=EM64L-G16RevA.
 03\State=1-A\HF=-669.5355951\MP2=-671.6263956\RMSD=6.903e-09\PG=C01 [X
 (C12H19N1O2)]\\@


 FAULTILY FAULTLESS, ICILY REGULAR, SPLENDIDLY NULL...
           MAUDE BY TENNYSON
 Job cpu time:       0 days  0 hours  3 minutes 34.6 seconds.
 Elapsed time:       0 days  0 hours  1 minutes 51.2 seconds.
 File lengths (MBytes):  RWF=     43 Int=      0 D2E=      0 Chk=      6 Scr=      1
 Normal termination of Gaussian 16 at Wed May  5 18:27:36 2021.
