 Entering Gaussian System, Link 0=/opt/gaussian/g16_legacy/g16
 Input=gaussian_02581_1_1.com
 Output=gaussian_02581_1_1.log
 Initial command:
 /opt/gaussian/g16_legacy/l1.exe "/scratch-local/jramos/2586473/Gau-5964.inp" -scrdir="/scratch-local/jramos/2586473/"
 Entering Link 1 = /opt/gaussian/g16_legacy/l1.exe PID=      5965.
  
 Copyright (c) 1988,1990,1992,1993,1995,1998,2003,2009,2016,
            Gaussian, Inc.  All Rights Reserved.
  
 This is part of the Gaussian(R) 16 program.  It is based on
 the Gaussian(R) 09 system (copyright 2009, Gaussian, Inc.),
 the Gaussian(R) 03 system (copyright 2003, Gaussian, Inc.),
 the Gaussian(R) 98 system (copyright 1998, Gaussian, Inc.),
 the Gaussian(R) 94 system (copyright 1995, Gaussian, Inc.),
 the Gaussian 92(TM) system (copyright 1992, Gaussian, Inc.),
 the Gaussian 90(TM) system (copyright 1990, Gaussian, Inc.),
 the Gaussian 88(TM) system (copyright 1988, Gaussian, Inc.),
 the Gaussian 86(TM) system (copyright 1986, Carnegie Mellon
 University), and the Gaussian 82(TM) system (copyright 1983,
 Carnegie Mellon University). Gaussian is a federally registered
 trademark of Gaussian, Inc.
  
 This software contains proprietary and confidential information,
 including trade secrets, belonging to Gaussian, Inc.
  
 This software is provided under written license and may be
 used, copied, transmitted, or stored only in accord with that
 written license.
  
 The following legend is applicable only to US Government
 contracts under FAR:
  
                    RESTRICTED RIGHTS LEGEND
  
 Use, reproduction and disclosure by the US Government is
 subject to restrictions as set forth in subparagraphs (a)
 and (c) of the Commercial Computer Software - Restricted
 Rights clause in FAR 52.227-19.
  
 Gaussian, Inc.
 340 Quinnipiac St., Bldg. 40, Wallingford CT 06492
  
  
 ---------------------------------------------------------------
 Warning -- This program may not be used in any manner that
 competes with the business of Gaussian, Inc. or will provide
 assistance to any competitor of Gaussian, Inc.  The licensee
 of this program is prohibited from giving any competitor of
 Gaussian, Inc. access to this program.  By using this program,
 the user acknowledges that Gaussian, Inc. is engaged in the
 business of creating and licensing software in the field of
 computational chemistry and represents and warrants to the
 licensee that it is not a competitor of Gaussian, Inc. and that
 it will not use this program in any manner prohibited above.
 ---------------------------------------------------------------
  

 Cite this work as:
 Gaussian 16, Revision A.03,
 M. J. Frisch, G. W. Trucks, H. B. Schlegel, G. E. Scuseria, 
 M. A. Robb, J. R. Cheeseman, G. Scalmani, V. Barone, 
 G. A. Petersson, H. Nakatsuji, X. Li, M. Caricato, A. V. Marenich, 
 J. Bloino, B. G. Janesko, R. Gomperts, B. Mennucci, H. P. Hratchian, 
 J. V. Ortiz, A. F. Izmaylov, J. L. Sonnenberg, D. Williams-Young, 
 F. Ding, F. Lipparini, F. Egidi, J. Goings, B. Peng, A. Petrone, 
 T. Henderson, D. Ranasinghe, V. G. Zakrzewski, J. Gao, N. Rega, 
 G. Zheng, W. Liang, M. Hada, M. Ehara, K. Toyota, R. Fukuda, 
 J. Hasegawa, M. Ishida, T. Nakajima, Y. Honda, O. Kitao, H. Nakai, 
 T. Vreven, K. Throssell, J. A. Montgomery, Jr., J. E. Peralta, 
 F. Ogliaro, M. J. Bearpark, J. J. Heyd, E. N. Brothers, K. N. Kudin, 
 V. N. Staroverov, T. A. Keith, R. Kobayashi, J. Normand, 
 K. Raghavachari, A. P. Rendell, J. C. Burant, S. S. Iyengar, 
 J. Tomasi, M. Cossi, J. M. Millam, M. Klene, C. Adamo, R. Cammi, 
 J. W. Ochterski, R. L. Martin, K. Morokuma, O. Farkas, 
 J. B. Foresman, and D. J. Fox, Gaussian, Inc., Wallingford CT, 2016.
 
 ******************************************
 Gaussian 16:  EM64L-G16RevA.03 25-Dec-2016
                 5-May-2021 
 ******************************************
 %chk=gaussian_02581_1_1.chk
 %nproc=2
 Will use up to    2 processors via shared memory.
 %mem=4000Mb
 -------------
 #p 6-31g* mp2
 -------------
 1/38=1,172=1/1;
 2/12=2,17=6,18=5,40=1/2;
 3/5=1,6=6,7=1,11=9,25=1,30=1/1,2,3;
 4//1;
 5/5=2,38=5/2;
 8/10=2/1;
 9/16=-3/6;
 6/7=2,8=2,9=2,10=2/1;
 99/5=1,9=1/99;
 Leave Link    1 at Wed May  5 19:49:18 2021, MaxMem=   524288000 cpu:               0.1 elap:               0.1
 (Enter /opt/gaussian/g16_legacy/l101.exe)
 ------------------------------------------------------
 Input file generated by CHIRIPA (05-May-2021 14:51:11)
 ------------------------------------------------------
 Symbolic Z-matrix:
 Charge =  0 Multiplicity = 1
 C                    -0.666    -0.374     0. 
 C                    -1.882     0.553     0. 
 C                    -3.207    -0.21      0. 
 H                    -0.713    -1.03     -0.88 
 H                    -0.713    -1.029     0.881 
 H                    -1.832     1.207    -0.88 
 H                    -1.832     1.207     0.88 
 H                    -3.283    -0.85      0.885 
 H                    -3.283    -0.85     -0.885 
 H                    -4.063     0.472     0. 
 C                     0.666     0.374     0. 
 C                     1.882    -0.553     0. 
 C                     3.207     0.21      0. 
 H                     0.713     1.029    -0.881 
 H                     0.713     1.03      0.88 
 H                     1.832    -1.207    -0.88 
 H                     1.832    -1.207     0.88 
 H                     3.283     0.85      0.885 
 H                     3.283     0.85     -0.885 
 H                     4.063    -0.472     0. 
 C                    -2.95148  -2.67796  -5.00102 
 C                    -3.02369  -1.45486  -4.08626 
 C                    -1.74154  -0.62221  -4.11023 
 H                    -2.10046  -3.30381  -4.69933 
 H                    -2.74727  -2.347    -6.02871 
 H                    -3.22908  -1.78793  -3.06084 
 H                    -3.87476  -0.83195  -4.39004 
 H                    -1.53507  -0.26191  -5.12322 
 H                    -0.88572  -1.22332  -3.78647 
 H                    -1.81497   0.2471   -3.44934 
 C                    -4.2258   -3.52038  -4.98788 
 C                    -4.15359  -4.74348  -5.90264 
 C                    -5.43574  -5.57613  -5.87867 
 H                    -4.43001  -3.85134  -3.96018 
 H                    -5.07683  -2.89453  -5.28957 
 H                    -3.30252  -5.36639  -5.59886 
 H                    -3.9482   -4.4104   -6.92806 
 H                    -6.29157  -4.97501  -6.20243 
 H                    -5.64222  -5.93643  -4.86567 
 H                    -5.36231  -6.44543  -6.53956 
 
 ITRead=  0  0  0  0  0  0  0  0  0  0  0  0  0  0  0  0  0  0  0  0
 ITRead=  0  0  0  0  0  0  0  0  0  0  0  0  0  0  0  0  0  0  0  0
 MicOpt= -1 -1 -1 -1 -1 -1 -1 -1 -1 -1 -1 -1 -1 -1 -1 -1 -1 -1 -1 -1
 MicOpt= -1 -1 -1 -1 -1 -1 -1 -1 -1 -1 -1 -1 -1 -1 -1 -1 -1 -1 -1 -1
 NAtoms=     40 NQM=       40 NQMF=       0 NMMI=      0 NMMIF=      0
                NMic=       0 NMicF=      0.
                    Isotopes and Nuclear Properties:
 (Nuclear quadrupole moments (NQMom) in fm**2, nuclear magnetic moments (NMagM)
  in nuclear magnetons)

  Atom         1           2           3           4           5           6           7           8           9          10
 IAtWgt=          12          12          12           1           1           1           1           1           1           1
 AtmWgt=  12.0000000  12.0000000  12.0000000   1.0078250   1.0078250   1.0078250   1.0078250   1.0078250   1.0078250   1.0078250
 NucSpn=           0           0           0           1           1           1           1           1           1           1
 AtZEff=  -0.0000000  -0.0000000  -0.0000000  -0.0000000  -0.0000000  -0.0000000  -0.0000000  -0.0000000  -0.0000000  -0.0000000
 NQMom=    0.0000000   0.0000000   0.0000000   0.0000000   0.0000000   0.0000000   0.0000000   0.0000000   0.0000000   0.0000000
 NMagM=    0.0000000   0.0000000   0.0000000   2.7928460   2.7928460   2.7928460   2.7928460   2.7928460   2.7928460   2.7928460
 AtZNuc=   6.0000000   6.0000000   6.0000000   1.0000000   1.0000000   1.0000000   1.0000000   1.0000000   1.0000000   1.0000000

  Atom        11          12          13          14          15          16          17          18          19          20
 IAtWgt=          12          12          12           1           1           1           1           1           1           1
 AtmWgt=  12.0000000  12.0000000  12.0000000   1.0078250   1.0078250   1.0078250   1.0078250   1.0078250   1.0078250   1.0078250
 NucSpn=           0           0           0           1           1           1           1           1           1           1
 AtZEff=  -0.0000000  -0.0000000  -0.0000000  -0.0000000  -0.0000000  -0.0000000  -0.0000000  -0.0000000  -0.0000000  -0.0000000
 NQMom=    0.0000000   0.0000000   0.0000000   0.0000000   0.0000000   0.0000000   0.0000000   0.0000000   0.0000000   0.0000000
 NMagM=    0.0000000   0.0000000   0.0000000   2.7928460   2.7928460   2.7928460   2.7928460   2.7928460   2.7928460   2.7928460
 AtZNuc=   6.0000000   6.0000000   6.0000000   1.0000000   1.0000000   1.0000000   1.0000000   1.0000000   1.0000000   1.0000000

  Atom        21          22          23          24          25          26          27          28          29          30
 IAtWgt=          12          12          12           1           1           1           1           1           1           1
 AtmWgt=  12.0000000  12.0000000  12.0000000   1.0078250   1.0078250   1.0078250   1.0078250   1.0078250   1.0078250   1.0078250
 NucSpn=           0           0           0           1           1           1           1           1           1           1
 AtZEff=  -0.0000000  -0.0000000  -0.0000000  -0.0000000  -0.0000000  -0.0000000  -0.0000000  -0.0000000  -0.0000000  -0.0000000
 NQMom=    0.0000000   0.0000000   0.0000000   0.0000000   0.0000000   0.0000000   0.0000000   0.0000000   0.0000000   0.0000000
 NMagM=    0.0000000   0.0000000   0.0000000   2.7928460   2.7928460   2.7928460   2.7928460   2.7928460   2.7928460   2.7928460
 AtZNuc=   6.0000000   6.0000000   6.0000000   1.0000000   1.0000000   1.0000000   1.0000000   1.0000000   1.0000000   1.0000000

  Atom        31          32          33          34          35          36          37          38          39          40
 IAtWgt=          12          12          12           1           1           1           1           1           1           1
 AtmWgt=  12.0000000  12.0000000  12.0000000   1.0078250   1.0078250   1.0078250   1.0078250   1.0078250   1.0078250   1.0078250
 NucSpn=           0           0           0           1           1           1           1           1           1           1
 AtZEff=  -0.0000000  -0.0000000  -0.0000000  -0.0000000  -0.0000000  -0.0000000  -0.0000000  -0.0000000  -0.0000000  -0.0000000
 NQMom=    0.0000000   0.0000000   0.0000000   0.0000000   0.0000000   0.0000000   0.0000000   0.0000000   0.0000000   0.0000000
 NMagM=    0.0000000   0.0000000   0.0000000   2.7928460   2.7928460   2.7928460   2.7928460   2.7928460   2.7928460   2.7928460
 AtZNuc=   6.0000000   6.0000000   6.0000000   1.0000000   1.0000000   1.0000000   1.0000000   1.0000000   1.0000000   1.0000000
 Leave Link  101 at Wed May  5 19:49:18 2021, MaxMem=   524288000 cpu:               0.1 elap:               0.1
 (Enter /opt/gaussian/g16_legacy/l202.exe)
                          Input orientation:                          
 ---------------------------------------------------------------------
 Center     Atomic      Atomic             Coordinates (Angstroms)
 Number     Number       Type             X           Y           Z
 ---------------------------------------------------------------------
      1          6           0       -0.666000   -0.374000    0.000000
      2          6           0       -1.882000    0.553000    0.000000
      3          6           0       -3.207000   -0.210000    0.000000
      4          1           0       -0.713000   -1.030000   -0.880000
      5          1           0       -0.713000   -1.029000    0.881000
      6          1           0       -1.832000    1.207000   -0.880000
      7          1           0       -1.832000    1.207000    0.880000
      8          1           0       -3.283000   -0.850000    0.885000
      9          1           0       -3.283000   -0.850000   -0.885000
     10          1           0       -4.063000    0.472000    0.000000
     11          6           0        0.666000    0.374000    0.000000
     12          6           0        1.882000   -0.553000    0.000000
     13          6           0        3.207000    0.210000    0.000000
     14          1           0        0.713000    1.029000   -0.881000
     15          1           0        0.713000    1.030000    0.880000
     16          1           0        1.832000   -1.207000   -0.880000
     17          1           0        1.832000   -1.207000    0.880000
     18          1           0        3.283000    0.850000    0.885000
     19          1           0        3.283000    0.850000   -0.885000
     20          1           0        4.063000   -0.472000    0.000000
     21          6           0       -2.951480   -2.677962   -5.001020
     22          6           0       -3.023694   -1.454856   -4.086262
     23          6           0       -1.741540   -0.622209   -4.110233
     24          1           0       -2.100455   -3.303809   -4.699330
     25          1           0       -2.747271   -2.346997   -6.028714
     26          1           0       -3.229080   -1.787933   -3.060839
     27          1           0       -3.874761   -0.831946   -4.390043
     28          1           0       -1.535066   -0.261906   -5.123224
     29          1           0       -0.885716   -1.223325   -3.786468
     30          1           0       -1.814971    0.247097   -3.449343
     31          6           0       -4.225801   -3.520376   -4.987878
     32          6           0       -4.153587   -4.743482   -5.902636
     33          6           0       -5.435740   -5.576129   -5.878665
     34          1           0       -4.430010   -3.851341   -3.960184
     35          1           0       -5.076826   -2.894529   -5.289568
     36          1           0       -3.302520   -5.366392   -5.598855
     37          1           0       -3.948201   -4.410405   -6.928059
     38          1           0       -6.291565   -4.975013   -6.202431
     39          1           0       -5.642215   -5.936432   -4.865674
     40          1           0       -5.362310   -6.445435   -6.539555
 ---------------------------------------------------------------------
                    Distance matrix (angstroms):
                    1          2          3          4          5
     1  C    0.000000
     2  C    1.529047   0.000000
     3  C    2.546287   1.528985   0.000000
     4  H    1.098610   2.155655   2.768905   0.000000
     5  H    1.098815   2.155330   2.768927   1.761000   0.000000
     6  H    2.152561   1.097550   2.161692   2.501266   3.058264
     7  H    2.152561   1.097550   2.161692   3.058420   2.500372
     8  H    2.803300   2.171275   1.094806   3.122903   2.576229
     9  H    2.803300   2.171275   1.094806   2.576301   3.123411
    10  H    3.500761   2.182504   1.094468   3.775302   3.775137
    11  C    1.527654   2.554280   3.916782   2.155750   2.155507
    12  C    2.554280   3.923128   5.100546   2.781358   2.781504
    13  C    3.916782   5.100546   6.427736   4.204569   4.204484
    14  H    2.155507   2.781504   4.204484   2.504587   3.061615
    15  H    2.155750   2.781358   4.204569   3.061809   2.504587
    16  H    2.776381   4.203070   5.211519   2.551148   3.099973
    17  H    2.776381   4.203070   5.211519   3.099347   2.551217
    18  H    4.228002   5.248682   6.635279   4.755801   4.415730
    19  H    4.228002   5.248682   6.635279   4.416157   4.755777
    20  H    4.730015   6.032715   7.274720   4.888347   4.888413
    21  C    5.961699   6.049223   5.582681   4.970853   6.505999
    22  C    4.839887   4.693878   4.275606   3.974912   5.494939
    23  C    4.255868   4.277249   4.383093   3.414468   5.112317
    24  H    5.720590   6.083289   5.734091   4.656449   6.183839
    25  H    6.676062   6.745670   6.412761   5.690518   7.322535
    26  H    4.235247   4.082074   3.443704   3.414847   4.737587
    27  H    5.456953   5.016139   4.483882   4.728251   6.149753
    28  H    5.197621   5.199217   5.389386   4.389842   6.108595
    29  H    3.886768   4.299448   4.555494   2.918006   4.674703
    30  H    3.688341   3.463530   3.747619   3.073571   4.647003
    31  C    6.888454   6.853081   6.072518   5.951168   7.279454
    32  C    8.129991   8.249481   7.502639   7.131231   8.464794
    33  C    9.185383   9.206193   8.265671   8.243677   9.416673
    34  H    6.476321   6.447762   5.517080   5.591392   6.724495
    35  H    7.334029   7.076150   6.219524   6.477942   7.784541
    36  H    7.951251   8.270687   7.612140   6.912127   8.216271
    37  H    8.663914   8.769411   8.135772   7.646743   9.103946
    38  H    9.554394   9.406027   8.407737   8.660935   9.842073
    39  H    8.909442   8.940175   7.899182   8.015974   9.022434
    40  H   10.083820  10.190997   9.289337   9.108984  10.296528
                    6          7          8          9         10
     6  H    0.000000
     7  H    1.760000   0.000000
     8  H    3.074390   2.517275   0.000000
     9  H    2.517275   3.074390   1.770000   0.000000
    10  H    2.508383   2.508383   1.771810   1.771810   0.000000
    11  C    2.776381   2.776381   4.228002   4.228002   4.730015
    12  C    4.203070   4.203070   5.248682   5.248682   6.032715
    13  C    5.211519   5.211519   6.635279   6.635279   7.274720
    14  H    2.551217   3.099973   4.755777   4.415730   4.888413
    15  H    3.099347   2.551148   4.416157   4.755801   4.888347
    16  H    4.387743   4.727567   5.422721   5.127446   6.192291
    17  H    4.727567   4.387743   5.127446   5.422721   6.192291
    18  H    5.422721   5.127446   6.782504   7.009654   7.408767
    19  H    5.127446   5.422721   7.009654   6.782504   7.408767
    20  H    6.192291   6.192291   7.408767   7.408767   8.180649
    21  C    5.773125   7.136705   6.172243   4.515858   6.013979
    22  C    4.334251   5.759286   5.014632   3.268206   4.635781
    23  C    3.713300   5.315695   5.232623   3.581915   4.845667
    24  H    5.916650   7.179721   6.213239   4.687078   6.339718
    25  H    6.322806   7.822975   7.094184   5.383846   6.784046
    26  H    3.959484   5.143119   4.056140   2.370000   3.895055
    27  H    4.544290   6.008621   5.308162   3.554692   4.583469
    28  H    4.500089   6.187451   6.284893   4.622085   5.759904
    29  H    3.905059   5.345826   5.263930   3.782176   5.225572
    30  H    2.742850   4.434514   4.705875   3.151918   4.123370
    31  C    6.704702   7.906349   6.520006   4.985317   6.390970
    32  C    8.125569   9.316767   7.873317   6.410444   7.877218
    33  C    9.164302  10.231194   8.527470   7.204670   8.545349
    34  H    6.467148   7.467520   5.813733   4.447520   5.874439
    35  H    6.840740   8.087954   6.747088   5.176691   6.351448
    36  H    8.224324   9.345987   7.901807   6.528293   8.124797
    37  H    8.521301   9.848824   8.611787   7.045391   8.476382
    38  H    9.296950  10.405087   8.734923   7.371721   8.550240
    39  H    9.023966   9.927695   8.031683   6.876296   8.199799
    40  H   10.151523  11.228208   9.526617   8.222312   9.607544
                   11         12         13         14         15
    11  C    0.000000
    12  C    1.529047   0.000000
    13  C    2.546287   1.528985   0.000000
    14  H    1.098815   2.155330   2.768927   0.000000
    15  H    1.098610   2.155655   2.768905   1.761000   0.000000
    16  H    2.152561   1.097550   2.161692   2.500372   3.058420
    17  H    2.152561   1.097550   2.161692   3.058264   2.501266
    18  H    2.803300   2.171275   1.094806   3.123411   2.576301
    19  H    2.803300   2.171275   1.094806   2.576229   3.122903
    20  H    3.500761   2.182504   1.094468   3.775137   3.775302
    21  C    6.885553   7.272427   8.442594   6.644136   7.858994
    22  C    5.801387   6.448001   7.634843   5.514175   6.693366
    23  C    4.866487   5.479858   6.486496   4.379407   5.801464
    24  H    6.577481   6.746154   7.911993   6.424049   7.604364
    25  H    7.443093   7.809863   8.850817   7.061855   8.432551
    26  H    5.405029   6.084154   7.401594   5.312890   6.245875
    27  H    6.430031   7.245039   8.396992   6.068283   7.231027
    28  H    5.612174   6.165103   6.996950   4.971590   6.539229
    29  H    4.392791   4.737819   5.756916   4.008816   5.423033
    30  H    4.250799   5.119152   6.092580   3.687600   5.074129
    31  C    7.998425   8.425526   9.697482   7.871151   8.917941
    32  C    9.179224   9.424944  10.656282   9.067637  10.149922
    33  C   10.353452  10.646119  11.947173  10.315590  11.275083
    34  H    7.714006   8.148839   9.513226   7.729790   8.585186
    35  H    8.464211   9.049174  10.307250   8.267505   9.326713
    36  H    8.946979   9.021927  10.238026   8.904134   9.950568
    37  H    9.601010   9.842196  10.979210   9.374478  10.596725
    38  H   10.746618  11.172802  12.473061  10.650339  11.631205
    39  H   10.163164  10.453226  11.822099  10.236387  11.042314
    40  H   11.207631  11.400289  12.668610  11.171205  12.159001
                   16         17         18         19         20
    16  H    0.000000
    17  H    1.760000   0.000000
    18  H    3.074390   2.517275   0.000000
    19  H    2.517275   3.074390   1.770000   0.000000
    20  H    2.508383   2.508383   1.771810   1.771810   0.000000
    21  C    6.482917   7.722163   9.271488   8.261772   8.892660
    22  C    5.824029   6.950033   8.354651   7.438738   8.239222
    23  C    4.852481   6.165598   7.236419   6.149433   7.114019
    24  H    5.869250   7.140710   8.798890   7.796463   8.251728
    25  H    6.984166   8.366579   9.715163   8.546505   9.286592
    26  H    5.541487   6.440670   8.058258   7.355281   8.017159
    27  H    6.710305   7.776962   9.049230   8.145417   9.078000
    28  H    5.498662   6.947592   7.781314   6.512499   7.591436
    29  H    3.979171   5.400201   6.595414   5.485926   6.276274
    30  H    4.692155   5.844485   6.718581   5.738350   6.853146
    31  C    7.676153   8.745322  10.486800   9.608116  10.142768
    32  C    8.576761   9.712781  11.517893  10.571969  10.981756
    33  C    9.843576  10.843841  12.769445  11.926787  12.281567
    34  H    7.462764   8.344620  10.250314   9.542006   9.961638
    35  H    8.368030   9.415052  11.046876  10.164074  10.834417
    36  H    8.119817   9.254156  11.137907  10.209458  10.466763
    37  H    8.958323  10.229287  11.874596  10.792622  11.299928
    38  H   10.417221  11.417139  13.260270  12.404763  12.882713
    39  H    9.701392  10.547236  12.601007  11.897936  12.154258
    40  H   10.546557  11.586591  13.531030  12.646689  12.933838
                   21         22         23         24         25
    21  C    0.000000
    22  C    1.529047   0.000000
    23  C    2.546287   1.528985   0.000000
    24  H    1.098610   2.155655   2.768905   0.000000
    25  H    1.098815   2.155329   2.768927   1.761000   0.000000
    26  H    2.152560   1.097550   2.161693   2.501265   3.058263
    27  H    2.152560   1.097549   2.161693   3.058419   2.500371
    28  H    2.803300   2.171275   1.094806   3.122903   2.576229
    29  H    2.803299   2.171275   1.094805   2.576300   3.123410
    30  H    3.500761   2.182503   1.094468   3.775302   3.775137
    31  C    1.527654   2.554280   3.916783   2.155750   2.155507
    32  C    2.554280   3.923128   5.100546   2.781358   2.781503
    33  C    3.916782   5.100546   6.427736   4.204568   4.204483
    34  H    2.155507   2.781503   4.204483   2.504587   3.061614
    35  H    2.155750   2.781358   4.204569   3.061809   2.504587
    36  H    2.776381   4.203070   5.211519   2.551148   3.099972
    37  H    2.776381   4.203070   5.211518   3.099347   2.551217
    38  H    4.228002   5.248681   6.635279   4.755801   4.415729
    39  H    4.228002   5.248682   6.635279   4.416156   4.755776
    40  H    4.730015   6.032715   7.274719   4.888347   4.888413
                   26         27         28         29         30
    26  H    0.000000
    27  H    1.760000   0.000000
    28  H    3.074390   2.517275   0.000000
    29  H    2.517275   3.074389   1.770000   0.000000
    30  H    2.508383   2.508383   1.771809   1.771810   0.000000
    31  C    2.776381   2.776381   4.228002   4.228002   4.730015
    32  C    4.203070   4.203070   5.248682   5.248681   6.032715
    33  C    5.211518   5.211518   6.635278   6.635278   7.274719
    34  H    2.551217   3.099972   4.755776   4.415729   4.888413
    35  H    3.099347   2.551148   4.416156   4.755800   4.888347
    36  H    4.387743   4.727567   5.422720   5.127445   6.192291
    37  H    4.727566   4.387743   5.127445   5.422720   6.192290
    38  H    5.422720   5.127445   6.782503   7.009654   7.408766
    39  H    5.127445   5.422720   7.009654   6.782503   7.408766
    40  H    6.192290   6.192291   7.408766   7.408766   8.180648
                   31         32         33         34         35
    31  C    0.000000
    32  C    1.529047   0.000000
    33  C    2.546286   1.528984   0.000000
    34  H    1.098815   2.155329   2.768927   0.000000
    35  H    1.098610   2.155655   2.768905   1.761000   0.000000
    36  H    2.152560   1.097549   2.161692   2.500371   3.058419
    37  H    2.152560   1.097550   2.161692   3.058263   2.501265
    38  H    2.803300   2.171275   1.094807   3.123411   2.576300
    39  H    2.803300   2.171275   1.094806   2.576229   3.122903
    40  H    3.500761   2.182503   1.094468   3.775137   3.775302
                   36         37         38         39         40
    36  H    0.000000
    37  H    1.760000   0.000000
    38  H    3.074390   2.517275   0.000000
    39  H    2.517275   3.074390   1.770000   0.000000
    40  H    2.508383   2.508383   1.771809   1.771809   0.000000
 Stoichiometry    C12H28
 Framework group  C1[X(C12H28)]
 Deg. of freedom   114
 Full point group                 C1      NOp   1
 Largest Abelian subgroup         C1      NOp   1
 Largest concise Abelian subgroup C1      NOp   1
                         Standard orientation:                         
 ---------------------------------------------------------------------
 Center     Atomic      Atomic             Coordinates (Angstroms)
 Number     Number       Type             X           Y           Z
 ---------------------------------------------------------------------
      1          6           0       -2.829122    0.757000   -0.560584
      2          6           0       -2.546483    2.030791    0.236635
      3          6           0       -1.374243    2.833741   -0.328095
      4          1           0       -1.926111    0.131397   -0.572248
      5          1           0       -3.036962    1.025380   -1.605653
      6          1           0       -2.340598    1.760200    1.280191
      7          1           0       -3.450331    2.653346    0.246564
      8          1           0       -1.574400    3.132184   -1.362247
      9          1           0       -0.458362    2.233963   -0.322747
     10          1           0       -1.189630    3.740136    0.256906
     11          6           0       -3.998278   -0.056472   -0.008256
     12          6           0       -4.280917   -1.330262   -0.805475
     13          6           0       -5.453157   -2.133213   -0.240745
     14          1           0       -3.790438   -0.324852    1.036814
     15          1           0       -4.901289    0.569132    0.003408
     16          1           0       -3.377069   -1.952818   -0.815404
     17          1           0       -4.486802   -1.059672   -1.849030
     18          1           0       -6.369038   -1.533435   -0.246092
     19          1           0       -5.253000   -2.431656    0.793407
     20          1           0       -5.637770   -3.039608   -0.825746
     21          6           0        2.827675   -0.721803    0.603740
     22          6           0        1.698330    0.203446    1.058140
     23          6           0        0.533137   -0.554584    1.694936
     24          1           0        2.428471   -1.452612   -0.112848
     25          1           0        3.190997   -1.296676    1.466823
     26          1           0        1.338180    0.777407    0.194730
     27          1           0        2.100308    0.932259    1.773584
     28          1           0        0.871520   -1.114120    2.573012
     29          1           0        0.105061   -1.269852    0.985188
     30          1           0       -0.262949    0.126069    2.012457
     31          6           0        3.999725    0.021275   -0.034900
     32          6           0        5.129071   -0.903974   -0.489300
     33          6           0        6.294263   -0.145945   -1.126096
     34          1           0        3.636403    0.596148   -0.897983
     35          1           0        4.398929    0.752084    0.681688
     36          1           0        4.727092   -1.632787   -1.204744
     37          1           0        5.489220   -1.477936    0.374110
     38          1           0        6.722340    0.569323   -0.416347
     39          1           0        5.955881    0.413592   -2.004173
     40          1           0        7.090349   -0.826597   -1.443618
 ---------------------------------------------------------------------
 Rotational constants (GHZ):           1.1184850           0.1904757           0.1769087
 Leave Link  202 at Wed May  5 19:49:18 2021, MaxMem=   524288000 cpu:               0.0 elap:               0.1
 (Enter /opt/gaussian/g16_legacy/l301.exe)
 Standard basis: 6-31G(d) (6D, 7F)
 Ernie: Thresh=  0.10000D-02 Tol=  0.10000D-05 Strict=F.
 There are   236 symmetry adapted cartesian basis functions of A   symmetry.
 There are   236 symmetry adapted basis functions of A   symmetry.
   236 basis functions,   448 primitive gaussians,   236 cartesian basis functions
    50 alpha electrons       50 beta electrons
       nuclear repulsion energy       685.2590489415 Hartrees.
 IExCor=    0 DFT=F Ex=HF Corr=None ExCW=0 ScaHFX=  1.000000
 ScaDFX=  1.000000  1.000000  1.000000  1.000000 ScalE2=  1.000000  1.000000
 IRadAn=      5 IRanWt=     -1 IRanGd=            0 ICorTp=0 IEmpDi=  4
 NAtoms=   40 NActive=   40 NUniq=   40 SFac= 1.00D+00 NAtFMM=   60 NAOKFM=F Big=F
 Integral buffers will be    131072 words long.
 Raffenetti 1 integral format.
 Two-electron integral symmetry is turned on.
 Leave Link  301 at Wed May  5 19:49:19 2021, MaxMem=   524288000 cpu:               0.2 elap:               0.2
 (Enter /opt/gaussian/g16_legacy/l302.exe)
 NPDir=0 NMtPBC=     1 NCelOv=     1 NCel=       1 NClECP=     1 NCelD=      1
         NCelK=      1 NCelE2=     1 NClLst=     1 CellRange=     0.0.
 One-electron integrals computed using PRISM.
 One-electron integral symmetry used in STVInt
 NBasis=   236 RedAO= T EigKep=  3.17D-03  NBF=   236
 NBsUse=   236 1.00D-06 EigRej= -1.00D+00 NBFU=   236
 Leave Link  302 at Wed May  5 19:49:19 2021, MaxMem=   524288000 cpu:               0.5 elap:               0.6
 (Enter /opt/gaussian/g16_legacy/l303.exe)
 DipDrv:  MaxL=1.
 Leave Link  303 at Wed May  5 19:49:20 2021, MaxMem=   524288000 cpu:               0.1 elap:               0.3
 (Enter /opt/gaussian/g16_legacy/l401.exe)
 ExpMin= 1.61D-01 ExpMax= 3.05D+03 ExpMxC= 4.57D+02 IAcc=3 IRadAn=         5 AccDes= 0.00D+00
 Harris functional with IExCor=  205 and IRadAn=       5 diagonalized for initial guess.
 HarFok:  IExCor=  205 AccDes= 0.00D+00 IRadAn=         5 IDoV= 1 UseB2=F ITyADJ=14
 ICtDFT=  3500011 ScaDFX=  1.000000  1.000000  1.000000  1.000000
 FoFCou: FMM=F IPFlag=           0 FMFlag=      100000 FMFlg1=           0
         NFxFlg=           0 DoJE=T BraDBF=F KetDBF=T FulRan=T
         wScrn=  0.000000 ICntrl=       500 IOpCl=  0 I1Cent=   200000004 NGrid=           0
         NMat0=    1 NMatS0=      1 NMatT0=    0 NMatD0=    1 NMtDS0=    0 NMtDT0=    0
 Petite list used in FoFCou.
 Harris En= -472.098998220784    
 JPrj=0 DoOrth=F DoCkMO=F.
 Leave Link  401 at Wed May  5 19:49:26 2021, MaxMem=   524288000 cpu:               9.7 elap:               6.0
 (Enter /opt/gaussian/g16_legacy/l502.exe)
 Keep R1 ints in memory in canonical form, NReq=397720540.
 FoFCou: FMM=F IPFlag=           0 FMFlag=           0 FMFlg1=           0
         NFxFlg=           0 DoJE=F BraDBF=F KetDBF=F FulRan=T
         wScrn=  0.000000 ICntrl=       600 IOpCl=  0 I1Cent=           0 NGrid=           0
         NMat0=    1 NMatS0=  27966 NMatT0=    0 NMatD0=    1 NMtDS0=    0 NMtDT0=    0
 Symmetry not used in FoFCou.
 Two-electron integral symmetry not used.
 Closed shell SCF:
 Using DIIS extrapolation, IDIIS=  1040.
 NGot=   524288000 LenX=   133109463 LenY=   133053326
 Requested convergence on RMS density matrix=1.00D-08 within 128 cycles.
 Requested convergence on MAX density matrix=1.00D-06.
 Requested convergence on             energy=1.00D-06.
 No special actions if energy rises.

 Cycle   1  Pass 1  IDiag  1:
 E= -469.871789009096    
 DIIS: error= 5.41D-02 at cycle   1 NSaved=   1.
 NSaved= 1 IEnMin= 1 EnMin= -469.871789009096     IErMin= 1 ErrMin= 5.41D-02
 ErrMax= 5.41D-02  0.00D+00 EMaxC= 1.00D-01 BMatC= 1.07D+00 BMatP= 1.07D+00
 IDIUse=3 WtCom= 4.59D-01 WtEn= 5.41D-01
 Coeff-Com:  0.100D+01
 Coeff-En:   0.100D+01
 Coeff:      0.100D+01
 Gap=     0.606 Goal=   None    Shift=    0.000
 GapD=    0.606 DampG=2.000 DampE=0.500 DampFc=1.0000 IDamp=-1.
 RMSDP=4.72D-03 MaxDP=1.14D-01              OVMax= 1.34D-01

 Cycle   2  Pass 1  IDiag  1:
 E= -470.596067292569     Delta-E=       -0.724278283473 Rises=F Damp=F
 DIIS: error= 1.97D-02 at cycle   2 NSaved=   2.
 NSaved= 2 IEnMin= 2 EnMin= -470.596067292569     IErMin= 2 ErrMin= 1.97D-02
 ErrMax= 1.97D-02  0.00D+00 EMaxC= 1.00D-01 BMatC= 1.46D-01 BMatP= 1.07D+00
 IDIUse=3 WtCom= 8.03D-01 WtEn= 1.97D-01
 Coeff-Com:  0.219D+00 0.781D+00
 Coeff-En:   0.000D+00 0.100D+01
 Coeff:      0.176D+00 0.824D+00
 Gap=     0.663 Goal=   None    Shift=    0.000
 RMSDP=1.71D-03 MaxDP=3.24D-02 DE=-7.24D-01 OVMax= 4.72D-02

 Cycle   3  Pass 1  IDiag  1:
 E= -470.727466340824     Delta-E=       -0.131399048254 Rises=F Damp=F
 DIIS: error= 4.45D-03 at cycle   3 NSaved=   3.
 NSaved= 3 IEnMin= 3 EnMin= -470.727466340824     IErMin= 3 ErrMin= 4.45D-03
 ErrMax= 4.45D-03  0.00D+00 EMaxC= 1.00D-01 BMatC= 4.78D-03 BMatP= 1.46D-01
 IDIUse=3 WtCom= 9.56D-01 WtEn= 4.45D-02
 Coeff-Com: -0.263D-01 0.104D+00 0.922D+00
 Coeff-En:   0.000D+00 0.000D+00 0.100D+01
 Coeff:     -0.251D-01 0.997D-01 0.925D+00
 Gap=     0.634 Goal=   None    Shift=    0.000
 RMSDP=2.77D-04 MaxDP=6.56D-03 DE=-1.31D-01 OVMax= 9.48D-03

 Cycle   4  Pass 1  IDiag  1:
 E= -470.732901929305     Delta-E=       -0.005435588481 Rises=F Damp=F
 DIIS: error= 4.81D-04 at cycle   4 NSaved=   4.
 NSaved= 4 IEnMin= 4 EnMin= -470.732901929305     IErMin= 4 ErrMin= 4.81D-04
 ErrMax= 4.81D-04  0.00D+00 EMaxC= 1.00D-01 BMatC= 6.26D-05 BMatP= 4.78D-03
 IDIUse=3 WtCom= 9.95D-01 WtEn= 4.81D-03
 Coeff-Com:  0.149D-02-0.230D-01-0.967D-01 0.112D+01
 Coeff-En:   0.000D+00 0.000D+00 0.000D+00 0.100D+01
 Coeff:      0.149D-02-0.229D-01-0.963D-01 0.112D+01
 Gap=     0.636 Goal=   None    Shift=    0.000
 RMSDP=6.04D-05 MaxDP=9.54D-04 DE=-5.44D-03 OVMax= 1.79D-03

 Cycle   5  Pass 1  IDiag  1:
 E= -470.733007249077     Delta-E=       -0.000105319773 Rises=F Damp=F
 DIIS: error= 1.43D-04 at cycle   5 NSaved=   5.
 NSaved= 5 IEnMin= 5 EnMin= -470.733007249077     IErMin= 5 ErrMin= 1.43D-04
 ErrMax= 1.43D-04  0.00D+00 EMaxC= 1.00D-01 BMatC= 6.24D-06 BMatP= 6.26D-05
 IDIUse=3 WtCom= 9.99D-01 WtEn= 1.43D-03
 Coeff-Com:  0.218D-02-0.121D-01-0.829D-01 0.188D+00 0.905D+00
 Coeff-En:   0.000D+00 0.000D+00 0.000D+00 0.000D+00 0.100D+01
 Coeff:      0.218D-02-0.121D-01-0.828D-01 0.188D+00 0.905D+00
 Gap=     0.636 Goal=   None    Shift=    0.000
 RMSDP=1.56D-05 MaxDP=3.01D-04 DE=-1.05D-04 OVMax= 4.74D-04

 Cycle   6  Pass 1  IDiag  1:
 E= -470.733015987382     Delta-E=       -0.000008738304 Rises=F Damp=F
 DIIS: error= 2.05D-05 at cycle   6 NSaved=   6.
 NSaved= 6 IEnMin= 6 EnMin= -470.733015987382     IErMin= 6 ErrMin= 2.05D-05
 ErrMax= 2.05D-05  0.00D+00 EMaxC= 1.00D-01 BMatC= 1.39D-07 BMatP= 6.24D-06
 IDIUse=1 WtCom= 1.00D+00 WtEn= 0.00D+00
 Coeff-Com:  0.128D-03-0.227D-03-0.292D-02-0.324D-01 0.632D-01 0.972D+00
 Coeff:      0.128D-03-0.227D-03-0.292D-02-0.324D-01 0.632D-01 0.972D+00
 Gap=     0.636 Goal=   None    Shift=    0.000
 RMSDP=3.33D-06 MaxDP=5.83D-05 DE=-8.74D-06 OVMax= 9.87D-05

 Cycle   7  Pass 1  IDiag  1:
 E= -470.733016223158     Delta-E=       -0.000000235776 Rises=F Damp=F
 DIIS: error= 3.73D-06 at cycle   7 NSaved=   7.
 NSaved= 7 IEnMin= 7 EnMin= -470.733016223158     IErMin= 7 ErrMin= 3.73D-06
 ErrMax= 3.73D-06  0.00D+00 EMaxC= 1.00D-01 BMatC= 5.19D-09 BMatP= 1.39D-07
 IDIUse=1 WtCom= 1.00D+00 WtEn= 0.00D+00
 Coeff-Com: -0.574D-04 0.347D-03 0.247D-02-0.656D-02-0.259D-01 0.367D-02
 Coeff-Com:  0.103D+01
 Coeff:     -0.574D-04 0.347D-03 0.247D-02-0.656D-02-0.259D-01 0.367D-02
 Coeff:      0.103D+01
 Gap=     0.636 Goal=   None    Shift=    0.000
 RMSDP=7.41D-07 MaxDP=1.33D-05 DE=-2.36D-07 OVMax= 2.29D-05

 Cycle   8  Pass 1  IDiag  1:
 E= -470.733016232789     Delta-E=       -0.000000009631 Rises=F Damp=F
 DIIS: error= 1.87D-06 at cycle   8 NSaved=   8.
 NSaved= 8 IEnMin= 8 EnMin= -470.733016232789     IErMin= 8 ErrMin= 1.87D-06
 ErrMax= 1.87D-06  0.00D+00 EMaxC= 1.00D-01 BMatC= 5.98D-10 BMatP= 5.19D-09
 IDIUse=1 WtCom= 1.00D+00 WtEn= 0.00D+00
 Coeff-Com: -0.154D-04 0.589D-04 0.520D-03 0.136D-02-0.725D-02-0.674D-01
 Coeff-Com:  0.144D+00 0.929D+00
 Coeff:     -0.154D-04 0.589D-04 0.520D-03 0.136D-02-0.725D-02-0.674D-01
 Coeff:      0.144D+00 0.929D+00
 Gap=     0.636 Goal=   None    Shift=    0.000
 RMSDP=2.01D-07 MaxDP=4.09D-06 DE=-9.63D-09 OVMax= 7.48D-06

 Cycle   9  Pass 1  IDiag  1:
 E= -470.733016233787     Delta-E=       -0.000000000999 Rises=F Damp=F
 DIIS: error= 3.68D-07 at cycle   9 NSaved=   9.
 NSaved= 9 IEnMin= 9 EnMin= -470.733016233787     IErMin= 9 ErrMin= 3.68D-07
 ErrMax= 3.68D-07  0.00D+00 EMaxC= 1.00D-01 BMatC= 4.13D-11 BMatP= 5.98D-10
 IDIUse=1 WtCom= 1.00D+00 WtEn= 0.00D+00
 Coeff-Com:  0.559D-05-0.331D-04-0.241D-03 0.485D-03 0.283D-02 0.349D-02
 Coeff-Com: -0.971D-01-0.543D-01 0.114D+01
 Coeff:      0.559D-05-0.331D-04-0.241D-03 0.485D-03 0.283D-02 0.349D-02
 Coeff:     -0.971D-01-0.543D-01 0.114D+01
 Gap=     0.636 Goal=   None    Shift=    0.000
 RMSDP=7.51D-08 MaxDP=1.43D-06 DE=-9.99D-10 OVMax= 2.26D-06

 Cycle  10  Pass 1  IDiag  1:
 E= -470.733016233873     Delta-E=       -0.000000000086 Rises=F Damp=F
 DIIS: error= 7.94D-08 at cycle  10 NSaved=  10.
 NSaved=10 IEnMin=10 EnMin= -470.733016233873     IErMin=10 ErrMin= 7.94D-08
 ErrMax= 7.94D-08  0.00D+00 EMaxC= 1.00D-01 BMatC= 1.59D-12 BMatP= 4.13D-11
 IDIUse=1 WtCom= 1.00D+00 WtEn= 0.00D+00
 Coeff-Com:  0.262D-06-0.253D-07-0.646D-05-0.138D-03 0.162D-03 0.382D-02
 Coeff-Com:  0.103D-02-0.531D-01-0.105D+00 0.115D+01
 Coeff:      0.262D-06-0.253D-07-0.646D-05-0.138D-03 0.162D-03 0.382D-02
 Coeff:      0.103D-02-0.531D-01-0.105D+00 0.115D+01
 Gap=     0.636 Goal=   None    Shift=    0.000
 RMSDP=1.47D-08 MaxDP=3.19D-07 DE=-8.59D-11 OVMax= 5.12D-07

 Cycle  11  Pass 1  IDiag  1:
 E= -470.733016233893     Delta-E=       -0.000000000020 Rises=F Damp=F
 DIIS: error= 7.44D-09 at cycle  11 NSaved=  11.
 NSaved=11 IEnMin=11 EnMin= -470.733016233893     IErMin=11 ErrMin= 7.44D-09
 ErrMax= 7.44D-09  0.00D+00 EMaxC= 1.00D-01 BMatC= 3.97D-14 BMatP= 1.59D-12
 IDIUse=1 WtCom= 1.00D+00 WtEn= 0.00D+00
 Coeff-Com: -0.182D-06 0.912D-06 0.713D-05 0.147D-04-0.106D-03-0.817D-03
 Coeff-Com:  0.223D-02 0.115D-01-0.549D-02-0.240D+00 0.123D+01
 Coeff:     -0.182D-06 0.912D-06 0.713D-05 0.147D-04-0.106D-03-0.817D-03
 Coeff:      0.223D-02 0.115D-01-0.549D-02-0.240D+00 0.123D+01
 Gap=     0.636 Goal=   None    Shift=    0.000
 RMSDP=2.00D-09 MaxDP=4.15D-08 DE=-1.96D-11 OVMax= 6.21D-08

 SCF Done:  E(RHF) =  -470.733016234     A.U. after   11 cycles
            NFock= 11  Conv=0.20D-08     -V/T= 2.0011
 KE= 4.702274018447D+02 PE=-2.463646160727D+03 EE= 8.374266937072D+02
 Leave Link  502 at Wed May  5 19:49:37 2021, MaxMem=   524288000 cpu:              16.6 elap:              11.3
 (Enter /opt/gaussian/g16_legacy/l801.exe)
 ExpMin= 1.61D-01 ExpMax= 3.05D+03 ExpMxC= 4.57D+02 IAcc=3 IRadAn=         5 AccDes= 0.00D+00
 HarFok:  IExCor=  205 AccDes= 0.00D+00 IRadAn=         5 IDoV=-2 UseB2=F ITyADJ=14
 ICtDFT= 12500011 ScaDFX=  1.000000  1.000000  1.000000  1.000000
 Largest valence mixing into a core orbital is  1.98D-04
 Largest core mixing into a valence orbital is  3.29D-05
 Range of M.O.s used for correlation:    13   236
 NBasis=   236 NAE=    50 NBE=    50 NFC=    12 NFV=     0
 NROrb=    224 NOA=    38 NOB=    38 NVA=   186 NVB=   186
 Leave Link  801 at Wed May  5 19:49:38 2021, MaxMem=   524288000 cpu:               1.7 elap:               1.1
 (Enter /opt/gaussian/g16_legacy/l906.exe)
 FulOut=F Deriv=F AODrv=F NAtomX=    40
   MMem=         154  MDisk=          38 MDiskD=          38
  W3Min=     1668048 MinDsk=     1838182 NBas6D=         236
 NBas2D=       28290    NTT=       27966    LW2=     2000000
    MDV=   523949001 MDiskM=       30717 NBas2p=       19272
 Fully direct method using O(OVN) memory.
 IMap=   1   2   3   4   5   6   7   8   9  10  11  12  13  14  15  16  17  18  19  20
 IMap=  21  22  23  24  25  26  27  28  29  30  31  32  33  34  35  36  37  38
 JobTyp=1 Pass  1:  I=   1 to  38 NPSUse=  2 ParTrn=T ParDer=T DoDerP=F.
 Spin components of T(2) and E(2):
     alpha-alpha T2 =       0.6288765359D-01 E2=     -0.1844253963D+00
     alpha-beta  T2 =       0.4044751584D+00 E2=     -0.1214881886D+01
     beta-beta   T2 =       0.6288765359D-01 E2=     -0.1844253963D+00
 The integrals were generated   1 times.
 ANorm=    0.1237032928D+01
 E2 =    -0.1583732679D+01 EUMP2 =    -0.47231674891270D+03
 Leave Link  906 at Wed May  5 19:50:17 2021, MaxMem=   524288000 cpu:              75.0 elap:              38.0
 (Enter /opt/gaussian/g16_legacy/l601.exe)
 Copying SCF densities to generalized density rwf, IOpCl= 0 IROHF=0.

 **********************************************************************

            Population analysis using the SCF density.

 **********************************************************************

 Orbital symmetries:
       Occupied  (A) (A) (A) (A) (A) (A) (A) (A) (A) (A) (A) (A)
                 (A) (A) (A) (A) (A) (A) (A) (A) (A) (A) (A) (A)
                 (A) (A) (A) (A) (A) (A) (A) (A) (A) (A) (A) (A)
                 (A) (A) (A) (A) (A) (A) (A) (A) (A) (A) (A) (A)
                 (A) (A)
       Virtual   (A) (A) (A) (A) (A) (A) (A) (A) (A) (A) (A) (A)
                 (A) (A) (A) (A) (A) (A) (A) (A) (A) (A) (A) (A)
                 (A) (A) (A) (A) (A) (A) (A) (A) (A) (A) (A) (A)
                 (A) (A) (A) (A) (A) (A) (A) (A) (A) (A) (A) (A)
                 (A) (A) (A) (A) (A) (A) (A) (A) (A) (A) (A) (A)
                 (A) (A) (A) (A) (A) (A) (A) (A) (A) (A) (A) (A)
                 (A) (A) (A) (A) (A) (A) (A) (A) (A) (A) (A) (A)
                 (A) (A) (A) (A) (A) (A) (A) (A) (A) (A) (A) (A)
                 (A) (A) (A) (A) (A) (A) (A) (A) (A) (A) (A) (A)
                 (A) (A) (A) (A) (A) (A) (A) (A) (A) (A) (A) (A)
                 (A) (A) (A) (A) (A) (A) (A) (A) (A) (A) (A) (A)
                 (A) (A) (A) (A) (A) (A) (A) (A) (A) (A) (A) (A)
                 (A) (A) (A) (A) (A) (A) (A) (A) (A) (A) (A) (A)
                 (A) (A) (A) (A) (A) (A) (A) (A) (A) (A) (A) (A)
                 (A) (A) (A) (A) (A) (A) (A) (A) (A) (A) (A) (A)
                 (A) (A) (A) (A) (A) (A)
 The electronic state is 1-A.
 Alpha  occ. eigenvalues --  -11.21669 -11.21622 -11.21583 -11.21581 -11.21445
 Alpha  occ. eigenvalues --  -11.21383 -11.21367 -11.21306 -11.21164 -11.21084
 Alpha  occ. eigenvalues --  -11.21051 -11.21020  -1.08482  -1.08395  -1.03604
 Alpha  occ. eigenvalues --   -1.03485  -0.96034  -0.95949  -0.87063  -0.86955
 Alpha  occ. eigenvalues --   -0.79680  -0.79540  -0.78294  -0.78210  -0.65210
 Alpha  occ. eigenvalues --   -0.64963  -0.61159  -0.60798  -0.59360  -0.59309
 Alpha  occ. eigenvalues --   -0.57658  -0.57540  -0.55316  -0.55238  -0.52727
 Alpha  occ. eigenvalues --   -0.52644  -0.52454  -0.52389  -0.50105  -0.49799
 Alpha  occ. eigenvalues --   -0.48014  -0.47864  -0.46767  -0.46494  -0.45877
 Alpha  occ. eigenvalues --   -0.45769  -0.45713  -0.45561  -0.43821  -0.43755
 Alpha virt. eigenvalues --    0.19814   0.23094   0.23611   0.24932   0.25707
 Alpha virt. eigenvalues --    0.26290   0.26563   0.27321   0.28479   0.29568
 Alpha virt. eigenvalues --    0.30336   0.30488   0.31699   0.31856   0.32467
 Alpha virt. eigenvalues --    0.32689   0.33273   0.34005   0.34306   0.34456
 Alpha virt. eigenvalues --    0.34703   0.35061   0.35850   0.36268   0.36443
 Alpha virt. eigenvalues --    0.36894   0.38388   0.39395   0.40121   0.40622
 Alpha virt. eigenvalues --    0.41505   0.44043   0.45332   0.45554   0.46106
 Alpha virt. eigenvalues --    0.46387   0.47645   0.50213   0.68970   0.69229
 Alpha virt. eigenvalues --    0.69533   0.69626   0.71469   0.71727   0.74291
 Alpha virt. eigenvalues --    0.75718   0.76029   0.77610   0.77857   0.80402
 Alpha virt. eigenvalues --    0.80939   0.81235   0.83847   0.84477   0.86027
 Alpha virt. eigenvalues --    0.87817   0.87975   0.89887   0.95739   0.96137
 Alpha virt. eigenvalues --    0.96352   0.96608   0.98372   0.98840   1.01599
 Alpha virt. eigenvalues --    1.01927   1.05173   1.06352   1.07427   1.07859
 Alpha virt. eigenvalues --    1.10545   1.11098   1.11620   1.12249   1.15457
 Alpha virt. eigenvalues --    1.15800   1.16679   1.16893   1.17235   1.18294
 Alpha virt. eigenvalues --    1.18727   1.19108   1.19399   1.20185   1.20518
 Alpha virt. eigenvalues --    1.20847   1.21009   1.21133   1.21393   1.21643
 Alpha virt. eigenvalues --    1.22058   1.22320   1.23057   1.23482   1.23694
 Alpha virt. eigenvalues --    1.25360   1.26439   1.26510   1.26996   1.29710
 Alpha virt. eigenvalues --    1.33636   1.39145   1.41099   1.43778   1.55780
 Alpha virt. eigenvalues --    1.57159   1.65851   1.67083   1.67342   1.67557
 Alpha virt. eigenvalues --    1.71037   1.71634   1.72716   1.72797   1.79020
 Alpha virt. eigenvalues --    1.80714   1.81130   1.81541   1.92701   1.93228
 Alpha virt. eigenvalues --    2.04835   2.05583   2.12973   2.13604   2.14697
 Alpha virt. eigenvalues --    2.15423   2.17807   2.18136   2.22403   2.22498
 Alpha virt. eigenvalues --    2.25270   2.25556   2.25769   2.26733   2.27583
 Alpha virt. eigenvalues --    2.27737   2.32804   2.32926   2.33929   2.34559
 Alpha virt. eigenvalues --    2.35923   2.36004   2.39619   2.39693   2.43047
 Alpha virt. eigenvalues --    2.43532   2.56634   2.56738   2.56811   2.57039
 Alpha virt. eigenvalues --    2.59458   2.60514   2.66690   2.66933   2.67728
 Alpha virt. eigenvalues --    2.67809   2.67895   2.68622   2.77028   2.77187
 Alpha virt. eigenvalues --    2.77672   2.77991   2.79856   2.80231   2.91388
 Alpha virt. eigenvalues --    2.91669   2.94922   2.95231   2.98521   2.98650
 Alpha virt. eigenvalues --    3.13719   3.14027   3.18586   3.18815   4.55287
 Alpha virt. eigenvalues --    4.56302   4.62434   4.64087   4.72130   4.72843
 Alpha virt. eigenvalues --    4.79726   4.80726   4.87477   4.89445   4.99581
 Alpha virt. eigenvalues --    5.00655
          Condensed to atoms (all electrons):
               1          2          3          4          5          6
     1  C    5.087291   0.351837  -0.057052   0.396382   0.395823  -0.043647
     2  C    0.351837   5.062387   0.340168  -0.041643  -0.041868   0.398785
     3  C   -0.057052   0.340168   5.106934  -0.002698  -0.002885  -0.039956
     4  H    0.396382  -0.041643  -0.002698   0.562224  -0.031477  -0.003076
     5  H    0.395823  -0.041868  -0.002885  -0.031477   0.567711   0.004566
     6  H   -0.043647   0.398785  -0.039956  -0.003076   0.004566   0.563599
     7  H   -0.043570   0.399091  -0.039796   0.004530  -0.002990  -0.031754
     8  H   -0.003804  -0.038829   0.390878   0.000162   0.002624   0.004239
     9  H   -0.003835  -0.038872   0.390469   0.002258   0.000184  -0.003020
    10  H    0.004393  -0.035849   0.394071  -0.000054  -0.000058  -0.002495
    11  C    0.355293  -0.051817   0.004052  -0.041382  -0.041728  -0.003190
    12  C   -0.051861   0.003976  -0.000085  -0.003250  -0.003262  -0.000063
    13  C    0.004069  -0.000085   0.000001  -0.000050  -0.000052  -0.000000
    14  H   -0.041629  -0.003247  -0.000051  -0.002853   0.004471   0.002329
    15  H   -0.041683  -0.003245  -0.000052   0.004434  -0.002810   0.000248
    16  H   -0.003149  -0.000064  -0.000000   0.002357   0.000238   0.000018
    17  H   -0.003198  -0.000065  -0.000000   0.000241   0.002407  -0.000003
    18  H   -0.000070  -0.000001  -0.000000  -0.000002   0.000013   0.000000
    19  H   -0.000070  -0.000001  -0.000000   0.000013  -0.000001  -0.000002
    20  H   -0.000087   0.000001  -0.000000   0.000001   0.000001   0.000000
    21  C    0.000000  -0.000000   0.000009  -0.000005   0.000000   0.000000
    22  C   -0.000028   0.000065  -0.000549  -0.000022   0.000000   0.000004
    23  C   -0.000084  -0.000250   0.000050   0.000167   0.000000  -0.000059
    24  H    0.000000  -0.000000   0.000000  -0.000001  -0.000000  -0.000000
    25  H   -0.000000   0.000000  -0.000000   0.000000   0.000000   0.000000
    26  H    0.000019   0.000023  -0.000486   0.000176  -0.000002   0.000003
    27  H    0.000000  -0.000003   0.000023  -0.000000   0.000000  -0.000000
    28  H    0.000005   0.000002  -0.000001   0.000007  -0.000000  -0.000002
    29  H   -0.000053  -0.000004  -0.000002   0.000523   0.000001  -0.000004
    30  H   -0.000076  -0.000087   0.000048  -0.000112   0.000006   0.000993
    31  C    0.000000   0.000000   0.000000   0.000000  -0.000000  -0.000000
    32  C   -0.000000   0.000000   0.000000  -0.000000   0.000000   0.000000
    33  C    0.000000   0.000000  -0.000000  -0.000000  -0.000000  -0.000000
    34  H   -0.000000   0.000000  -0.000000  -0.000000   0.000000   0.000000
    35  H    0.000000  -0.000000  -0.000000  -0.000000  -0.000000  -0.000000
    36  H    0.000000   0.000000  -0.000000   0.000000  -0.000000  -0.000000
    37  H   -0.000000   0.000000   0.000000  -0.000000   0.000000   0.000000
    38  H   -0.000000   0.000000   0.000000   0.000000  -0.000000   0.000000
    39  H    0.000000   0.000000  -0.000000  -0.000000  -0.000000   0.000000
    40  H   -0.000000  -0.000000   0.000000   0.000000   0.000000   0.000000
               7          8          9         10         11         12
     1  C   -0.043570  -0.003804  -0.003835   0.004393   0.355293  -0.051861
     2  C    0.399091  -0.038829  -0.038872  -0.035849  -0.051817   0.003976
     3  C   -0.039796   0.390878   0.390469   0.394071   0.004052  -0.000085
     4  H    0.004530   0.000162   0.002258  -0.000054  -0.041382  -0.003250
     5  H   -0.002990   0.002624   0.000184  -0.000058  -0.041728  -0.003262
     6  H   -0.031754   0.004239  -0.003020  -0.002495  -0.003190  -0.000063
     7  H    0.564325  -0.002903   0.004170  -0.002500  -0.003191  -0.000064
     8  H   -0.002903   0.549390  -0.029134  -0.027466  -0.000069  -0.000001
     9  H    0.004170  -0.029134   0.541276  -0.027368  -0.000060  -0.000000
    10  H   -0.002500  -0.027466  -0.027368   0.537233  -0.000087   0.000001
    11  C   -0.003191  -0.000069  -0.000060  -0.000087   5.083831   0.352281
    12  C   -0.000064  -0.000001  -0.000000   0.000001   0.352281   5.060347
    13  C   -0.000000  -0.000000   0.000000  -0.000000  -0.057336   0.340682
    14  H    0.000236  -0.000001   0.000014   0.000001   0.396111  -0.041808
    15  H    0.002404   0.000013  -0.000002   0.000001   0.396123  -0.041834
    16  H   -0.000003   0.000000  -0.000002   0.000000  -0.043668   0.399037
    17  H    0.000017  -0.000002   0.000000   0.000000  -0.043674   0.399084
    18  H   -0.000002   0.000000  -0.000000  -0.000000  -0.003794  -0.038904
    19  H    0.000000  -0.000000   0.000000  -0.000000  -0.003786  -0.038883
    20  H    0.000000  -0.000000  -0.000000   0.000000   0.004400  -0.035845
    21  C    0.000000  -0.000000   0.000008  -0.000000  -0.000000   0.000000
    22  C   -0.000001   0.000005  -0.000247   0.000017   0.000001   0.000000
    23  C    0.000003  -0.000000   0.000059  -0.000002  -0.000008  -0.000005
    24  H    0.000000   0.000000   0.000002  -0.000000  -0.000000  -0.000000
    25  H   -0.000000   0.000000  -0.000000   0.000000   0.000000  -0.000000
    26  H   -0.000000   0.000018   0.001576   0.000007  -0.000001   0.000000
    27  H    0.000000  -0.000000   0.000039  -0.000001  -0.000000  -0.000000
    28  H   -0.000000  -0.000000   0.000001   0.000000  -0.000000   0.000000
    29  H    0.000000  -0.000000   0.000003  -0.000000   0.000000  -0.000000
    30  H    0.000003   0.000001   0.000060  -0.000001  -0.000010  -0.000001
    31  C   -0.000000   0.000000  -0.000002  -0.000000   0.000000   0.000000
    32  C   -0.000000  -0.000000  -0.000000  -0.000000  -0.000000  -0.000000
    33  C   -0.000000   0.000000   0.000000   0.000000   0.000000   0.000000
    34  H    0.000000   0.000000  -0.000002   0.000000   0.000000  -0.000000
    35  H   -0.000000   0.000000   0.000000  -0.000000   0.000000   0.000000
    36  H   -0.000000   0.000000  -0.000000   0.000000   0.000000   0.000000
    37  H    0.000000   0.000000  -0.000000  -0.000000   0.000000  -0.000000
    38  H   -0.000000  -0.000000  -0.000000   0.000000  -0.000000   0.000000
    39  H    0.000000  -0.000000   0.000000  -0.000000  -0.000000  -0.000000
    40  H    0.000000  -0.000000  -0.000000  -0.000000  -0.000000  -0.000000
              13         14         15         16         17         18
     1  C    0.004069  -0.041629  -0.041683  -0.003149  -0.003198  -0.000070
     2  C   -0.000085  -0.003247  -0.003245  -0.000064  -0.000065  -0.000001
     3  C    0.000001  -0.000051  -0.000052  -0.000000  -0.000000  -0.000000
     4  H   -0.000050  -0.002853   0.004434   0.002357   0.000241  -0.000002
     5  H   -0.000052   0.004471  -0.002810   0.000238   0.002407   0.000013
     6  H   -0.000000   0.002329   0.000248   0.000018  -0.000003   0.000000
     7  H   -0.000000   0.000236   0.002404  -0.000003   0.000017  -0.000002
     8  H   -0.000000  -0.000001   0.000013   0.000000  -0.000002   0.000000
     9  H    0.000000   0.000014  -0.000002  -0.000002   0.000000  -0.000000
    10  H   -0.000000   0.000001   0.000001   0.000000   0.000000  -0.000000
    11  C   -0.057336   0.396111   0.396123  -0.043668  -0.043674  -0.003794
    12  C    0.340682  -0.041808  -0.041834   0.399037   0.399084  -0.038904
    13  C    5.097360  -0.002862  -0.002857  -0.039892  -0.039905   0.391270
    14  H   -0.002862   0.566452  -0.031537  -0.002986   0.004570   0.000158
    15  H   -0.002857  -0.031537   0.567002   0.004571  -0.002975   0.002621
    16  H   -0.039892  -0.002986   0.004571   0.564773  -0.031698   0.004223
    17  H   -0.039905   0.004570  -0.002975  -0.031698   0.564638  -0.002892
    18  H    0.391270   0.000158   0.002621   0.004223  -0.002892   0.548897
    19  H    0.391305   0.002621   0.000159  -0.002894   0.004220  -0.029135
    20  H    0.394074  -0.000059  -0.000059  -0.002507  -0.002506  -0.027508
    21  C   -0.000000   0.000000   0.000000   0.000000  -0.000000  -0.000000
    22  C   -0.000000  -0.000001  -0.000000  -0.000000   0.000000   0.000000
    23  C    0.000000   0.000028   0.000000   0.000001   0.000000  -0.000000
    24  H    0.000000  -0.000000   0.000000   0.000000   0.000000  -0.000000
    25  H    0.000000   0.000000  -0.000000  -0.000000   0.000000   0.000000
    26  H   -0.000000  -0.000000   0.000000  -0.000000  -0.000000   0.000000
    27  H   -0.000000   0.000000   0.000000   0.000000   0.000000  -0.000000
    28  H    0.000000  -0.000001   0.000000  -0.000000   0.000000   0.000000
    29  H   -0.000000   0.000014   0.000000   0.000053  -0.000000   0.000000
    30  H   -0.000000   0.000088  -0.000001  -0.000001   0.000000  -0.000000
    31  C   -0.000000  -0.000000  -0.000000  -0.000000   0.000000   0.000000
    32  C   -0.000000   0.000000   0.000000   0.000000  -0.000000  -0.000000
    33  C    0.000000  -0.000000  -0.000000  -0.000000  -0.000000   0.000000
    34  H    0.000000   0.000000  -0.000000  -0.000000   0.000000  -0.000000
    35  H   -0.000000  -0.000000   0.000000   0.000000  -0.000000   0.000000
    36  H   -0.000000  -0.000000  -0.000000  -0.000000  -0.000000   0.000000
    37  H   -0.000000   0.000000  -0.000000   0.000000   0.000000  -0.000000
    38  H    0.000000  -0.000000   0.000000  -0.000000  -0.000000   0.000000
    39  H   -0.000000  -0.000000   0.000000   0.000000   0.000000   0.000000
    40  H    0.000000   0.000000   0.000000   0.000000  -0.000000   0.000000
              19         20         21         22         23         24
     1  C   -0.000070  -0.000087   0.000000  -0.000028  -0.000084   0.000000
     2  C   -0.000001   0.000001  -0.000000   0.000065  -0.000250  -0.000000
     3  C   -0.000000  -0.000000   0.000009  -0.000549   0.000050   0.000000
     4  H    0.000013   0.000001  -0.000005  -0.000022   0.000167  -0.000001
     5  H   -0.000001   0.000001   0.000000   0.000000   0.000000  -0.000000
     6  H   -0.000002   0.000000   0.000000   0.000004  -0.000059  -0.000000
     7  H    0.000000   0.000000   0.000000  -0.000001   0.000003   0.000000
     8  H   -0.000000  -0.000000  -0.000000   0.000005  -0.000000   0.000000
     9  H    0.000000  -0.000000   0.000008  -0.000247   0.000059   0.000002
    10  H   -0.000000   0.000000  -0.000000   0.000017  -0.000002  -0.000000
    11  C   -0.003786   0.004400  -0.000000   0.000001  -0.000008  -0.000000
    12  C   -0.038883  -0.035845   0.000000   0.000000  -0.000005  -0.000000
    13  C    0.391305   0.394074  -0.000000  -0.000000   0.000000   0.000000
    14  H    0.002621  -0.000059   0.000000  -0.000001   0.000028  -0.000000
    15  H    0.000159  -0.000059   0.000000  -0.000000   0.000000   0.000000
    16  H   -0.002894  -0.002507   0.000000  -0.000000   0.000001   0.000000
    17  H    0.004220  -0.002506  -0.000000   0.000000   0.000000   0.000000
    18  H   -0.029135  -0.027508  -0.000000   0.000000  -0.000000  -0.000000
    19  H    0.548555  -0.027491  -0.000000   0.000000  -0.000000   0.000000
    20  H   -0.027491   0.537479   0.000000  -0.000000  -0.000000   0.000000
    21  C   -0.000000   0.000000   5.084785   0.350652  -0.057250   0.396016
    22  C    0.000000  -0.000000   0.350652   5.069158   0.340037  -0.041736
    23  C   -0.000000  -0.000000  -0.057250   0.340037   5.103658  -0.002877
    24  H    0.000000   0.000000   0.396016  -0.041736  -0.002877   0.566733
    25  H    0.000000  -0.000000   0.395995  -0.041714  -0.002857  -0.031451
    26  H    0.000000   0.000000  -0.043625   0.398676  -0.040418  -0.002995
    27  H   -0.000000   0.000000  -0.043580   0.399470  -0.039780   0.004555
    28  H    0.000000   0.000000  -0.003810  -0.038511   0.390533   0.000161
    29  H   -0.000000  -0.000000  -0.003790  -0.038872   0.391028   0.002654
    30  H   -0.000000  -0.000000   0.004387  -0.035781   0.394025  -0.000057
    31  C    0.000000  -0.000000   0.355722  -0.052059   0.004069  -0.041625
    32  C   -0.000000   0.000000  -0.051912   0.003977  -0.000085  -0.003253
    33  C    0.000000   0.000000   0.004073  -0.000085   0.000001  -0.000052
    34  H   -0.000000  -0.000000  -0.041693  -0.003293  -0.000052  -0.002797
    35  H   -0.000000   0.000000  -0.041668  -0.003241  -0.000052   0.004461
    36  H   -0.000000  -0.000000  -0.003200  -0.000065  -0.000000   0.002403
    37  H    0.000000  -0.000000  -0.003212  -0.000065  -0.000000   0.000237
    38  H    0.000000   0.000000  -0.000070  -0.000001  -0.000000  -0.000001
    39  H    0.000000   0.000000  -0.000070  -0.000000  -0.000000   0.000013
    40  H    0.000000   0.000000  -0.000087   0.000001  -0.000000   0.000001
              25         26         27         28         29         30
     1  C   -0.000000   0.000019   0.000000   0.000005  -0.000053  -0.000076
     2  C    0.000000   0.000023  -0.000003   0.000002  -0.000004  -0.000087
     3  C   -0.000000  -0.000486   0.000023  -0.000001  -0.000002   0.000048
     4  H    0.000000   0.000176  -0.000000   0.000007   0.000523  -0.000112
     5  H    0.000000  -0.000002   0.000000  -0.000000   0.000001   0.000006
     6  H    0.000000   0.000003  -0.000000  -0.000002  -0.000004   0.000993
     7  H   -0.000000  -0.000000   0.000000  -0.000000   0.000000   0.000003
     8  H    0.000000   0.000018  -0.000000  -0.000000  -0.000000   0.000001
     9  H   -0.000000   0.001576   0.000039   0.000001   0.000003   0.000060
    10  H    0.000000   0.000007  -0.000001   0.000000  -0.000000  -0.000001
    11  C    0.000000  -0.000001  -0.000000  -0.000000   0.000000  -0.000010
    12  C   -0.000000   0.000000  -0.000000   0.000000  -0.000000  -0.000001
    13  C    0.000000  -0.000000  -0.000000   0.000000  -0.000000  -0.000000
    14  H    0.000000  -0.000000   0.000000  -0.000001   0.000014   0.000088
    15  H   -0.000000   0.000000   0.000000   0.000000   0.000000  -0.000001
    16  H   -0.000000  -0.000000   0.000000  -0.000000   0.000053  -0.000001
    17  H    0.000000  -0.000000   0.000000   0.000000  -0.000000   0.000000
    18  H    0.000000   0.000000  -0.000000   0.000000   0.000000  -0.000000
    19  H    0.000000   0.000000  -0.000000   0.000000  -0.000000  -0.000000
    20  H   -0.000000   0.000000   0.000000   0.000000  -0.000000  -0.000000
    21  C    0.395995  -0.043625  -0.043580  -0.003810  -0.003790   0.004387
    22  C   -0.041714   0.398676   0.399470  -0.038511  -0.038872  -0.035781
    23  C   -0.002857  -0.040418  -0.039780   0.390533   0.391028   0.394025
    24  H   -0.031451  -0.002995   0.004555   0.000161   0.002654  -0.000057
    25  H    0.566737   0.004511  -0.002972   0.002586   0.000152  -0.000065
    26  H    0.004511   0.559382  -0.031767   0.004235  -0.002966  -0.002735
    27  H   -0.002972  -0.031767   0.563015  -0.002880   0.004231  -0.002490
    28  H    0.002586   0.004235  -0.002880   0.548132  -0.029064  -0.027156
    29  H    0.000152  -0.002966   0.004231  -0.029064   0.548864  -0.027831
    30  H   -0.000065  -0.002735  -0.002490  -0.027156  -0.027831   0.533174
    31  C   -0.041640  -0.003037  -0.003188  -0.000069  -0.000070  -0.000085
    32  C   -0.003265  -0.000065  -0.000065  -0.000001  -0.000001   0.000001
    33  C   -0.000052  -0.000001  -0.000000  -0.000000  -0.000000  -0.000000
    34  H    0.004469   0.002447   0.000240  -0.000001   0.000013   0.000001
    35  H   -0.002798   0.000234   0.002400   0.000013  -0.000001   0.000001
    36  H    0.000238   0.000017  -0.000003   0.000000  -0.000002   0.000000
    37  H    0.002407  -0.000003   0.000017  -0.000002   0.000000   0.000000
    38  H    0.000013   0.000000  -0.000002   0.000000  -0.000000  -0.000000
    39  H   -0.000001  -0.000002   0.000000  -0.000000   0.000000  -0.000000
    40  H    0.000001   0.000000   0.000000  -0.000000  -0.000000   0.000000
              31         32         33         34         35         36
     1  C    0.000000  -0.000000   0.000000  -0.000000   0.000000   0.000000
     2  C    0.000000   0.000000   0.000000   0.000000  -0.000000   0.000000
     3  C    0.000000   0.000000  -0.000000  -0.000000  -0.000000  -0.000000
     4  H    0.000000  -0.000000  -0.000000  -0.000000  -0.000000   0.000000
     5  H   -0.000000   0.000000  -0.000000   0.000000  -0.000000  -0.000000
     6  H   -0.000000   0.000000  -0.000000   0.000000  -0.000000  -0.000000
     7  H   -0.000000  -0.000000  -0.000000   0.000000  -0.000000  -0.000000
     8  H    0.000000  -0.000000   0.000000   0.000000   0.000000   0.000000
     9  H   -0.000002  -0.000000   0.000000  -0.000002   0.000000  -0.000000
    10  H   -0.000000  -0.000000   0.000000   0.000000  -0.000000   0.000000
    11  C    0.000000  -0.000000   0.000000   0.000000   0.000000   0.000000
    12  C    0.000000  -0.000000   0.000000  -0.000000   0.000000   0.000000
    13  C   -0.000000  -0.000000   0.000000   0.000000  -0.000000  -0.000000
    14  H   -0.000000   0.000000  -0.000000   0.000000  -0.000000  -0.000000
    15  H   -0.000000   0.000000  -0.000000  -0.000000   0.000000  -0.000000
    16  H   -0.000000   0.000000  -0.000000  -0.000000   0.000000  -0.000000
    17  H    0.000000  -0.000000  -0.000000   0.000000  -0.000000  -0.000000
    18  H    0.000000  -0.000000   0.000000  -0.000000   0.000000   0.000000
    19  H    0.000000  -0.000000   0.000000  -0.000000  -0.000000  -0.000000
    20  H   -0.000000   0.000000   0.000000  -0.000000   0.000000  -0.000000
    21  C    0.355722  -0.051912   0.004073  -0.041693  -0.041668  -0.003200
    22  C   -0.052059   0.003977  -0.000085  -0.003293  -0.003241  -0.000065
    23  C    0.004069  -0.000085   0.000001  -0.000052  -0.000052  -0.000000
    24  H   -0.041625  -0.003253  -0.000052  -0.002797   0.004461   0.002403
    25  H   -0.041640  -0.003265  -0.000052   0.004469  -0.002798   0.000238
    26  H   -0.003037  -0.000065  -0.000001   0.002447   0.000234   0.000017
    27  H   -0.003188  -0.000065  -0.000000   0.000240   0.002400  -0.000003
    28  H   -0.000069  -0.000001  -0.000000  -0.000001   0.000013   0.000000
    29  H   -0.000070  -0.000001  -0.000000   0.000013  -0.000001  -0.000002
    30  H   -0.000085   0.000001  -0.000000   0.000001   0.000001   0.000000
    31  C    5.083847   0.352229  -0.057339   0.396091   0.396134  -0.043643
    32  C    0.352229   5.060505   0.340651  -0.041840  -0.041796   0.399133
    33  C   -0.057339   0.340651   5.097328  -0.002852  -0.002853  -0.039869
    34  H    0.396091  -0.041840  -0.002852   0.566639  -0.031484  -0.002986
    35  H    0.396134  -0.041796  -0.002853  -0.031484   0.566495   0.004564
    36  H   -0.043643   0.399133  -0.039869  -0.002986   0.004564   0.564249
    37  H   -0.043662   0.399116  -0.039878   0.004570  -0.002974  -0.031652
    38  H   -0.003799  -0.038903   0.391285   0.000158   0.002622   0.004219
    39  H   -0.003797  -0.038895   0.391290   0.002626   0.000159  -0.002891
    40  H    0.004399  -0.035837   0.394112  -0.000059  -0.000059  -0.002507
              37         38         39         40
     1  C   -0.000000  -0.000000   0.000000  -0.000000
     2  C    0.000000   0.000000   0.000000  -0.000000
     3  C    0.000000   0.000000  -0.000000   0.000000
     4  H   -0.000000   0.000000  -0.000000   0.000000
     5  H    0.000000  -0.000000  -0.000000   0.000000
     6  H    0.000000   0.000000   0.000000   0.000000
     7  H    0.000000  -0.000000   0.000000   0.000000
     8  H    0.000000  -0.000000  -0.000000  -0.000000
     9  H   -0.000000  -0.000000   0.000000  -0.000000
    10  H   -0.000000   0.000000  -0.000000  -0.000000
    11  C    0.000000  -0.000000  -0.000000  -0.000000
    12  C   -0.000000   0.000000  -0.000000  -0.000000
    13  C   -0.000000   0.000000  -0.000000   0.000000
    14  H    0.000000  -0.000000  -0.000000   0.000000
    15  H   -0.000000   0.000000   0.000000   0.000000
    16  H    0.000000  -0.000000   0.000000   0.000000
    17  H    0.000000  -0.000000   0.000000  -0.000000
    18  H   -0.000000   0.000000   0.000000   0.000000
    19  H    0.000000   0.000000   0.000000   0.000000
    20  H   -0.000000   0.000000   0.000000   0.000000
    21  C   -0.003212  -0.000070  -0.000070  -0.000087
    22  C   -0.000065  -0.000001  -0.000000   0.000001
    23  C   -0.000000  -0.000000  -0.000000  -0.000000
    24  H    0.000237  -0.000001   0.000013   0.000001
    25  H    0.002407   0.000013  -0.000001   0.000001
    26  H   -0.000003   0.000000  -0.000002   0.000000
    27  H    0.000017  -0.000002   0.000000   0.000000
    28  H   -0.000002   0.000000  -0.000000  -0.000000
    29  H    0.000000  -0.000000   0.000000  -0.000000
    30  H    0.000000  -0.000000  -0.000000   0.000000
    31  C   -0.043662  -0.003799  -0.003797   0.004399
    32  C    0.399116  -0.038903  -0.038895  -0.035837
    33  C   -0.039878   0.391285   0.391290   0.394112
    34  H    0.004570   0.000158   0.002626  -0.000059
    35  H   -0.002974   0.002622   0.000159  -0.000059
    36  H   -0.031652   0.004219  -0.002891  -0.002507
    37  H    0.564329  -0.002891   0.004219  -0.002506
    38  H   -0.002891   0.548746  -0.029131  -0.027486
    39  H    0.004219  -0.029131   0.548629  -0.027479
    40  H   -0.002506  -0.027486  -0.027479   0.537185
 Mulliken charges:
               1
     1  C   -0.301215
     2  C   -0.300405
     3  C   -0.483088
     4  H    0.153151
     5  H    0.149088
     6  H    0.152487
     7  H    0.151995
     8  H    0.154878
     9  H    0.162426
    10  H    0.160158
    11  C   -0.298293
    12  C   -0.299539
    13  C   -0.475721
    14  H    0.149943
    15  H    0.149481
    16  H    0.151595
    17  H    0.151741
    18  H    0.155123
    19  H    0.155388
    20  H    0.160106
    21  C   -0.297672
    22  C   -0.305793
    23  C   -0.479876
    24  H    0.149611
    25  H    0.149708
    26  H    0.156778
    27  H    0.152742
    28  H    0.155822
    29  H    0.155121
    30  H    0.163701
    31  C   -0.298475
    32  C   -0.299695
    33  C   -0.475757
    34  H    0.149806
    35  H    0.149845
    36  H    0.151995
    37  H    0.151951
    38  H    0.155241
    39  H    0.155330
    40  H    0.160321
 Sum of Mulliken charges =  -0.00000
 Mulliken charges with hydrogens summed into heavy atoms:
               1
     1  C    0.001024
     2  C    0.004076
     3  C   -0.005626
    11  C    0.001131
    12  C    0.003797
    13  C   -0.005104
    21  C    0.001647
    22  C    0.003727
    23  C   -0.005232
    31  C    0.001175
    32  C    0.004251
    33  C   -0.004865
 Electronic spatial extent (au):  <R**2>=           6505.1370
 Charge=             -0.0000 electrons
 Dipole moment (field-independent basis, Debye):
    X=              0.0369    Y=             -0.0075    Z=              0.0122  Tot=              0.0396
 Quadrupole moment (field-independent basis, Debye-Ang):
   XX=            -85.7064   YY=            -85.2181   ZZ=            -83.8710
   XY=             -1.1947   XZ=              1.4719   YZ=              0.1696
 Traceless Quadrupole moment (field-independent basis, Debye-Ang):
   XX=             -0.7746   YY=             -0.2863   ZZ=              1.0609
   XY=             -1.1947   XZ=              1.4719   YZ=              0.1696
 Octapole moment (field-independent basis, Debye-Ang**2):
  XXX=             -3.3350  YYY=             -0.2166  ZZZ=              0.3953  XYY=             -0.0628
  XXY=              4.1053  XXZ=              1.5232  XZZ=              1.4317  YZZ=              0.0846
  YYZ=             -0.2101  XYZ=              1.4736
 Hexadecapole moment (field-independent basis, Debye-Ang**3):
 XXXX=          -7708.5076 YYYY=          -1110.3497 ZZZZ=           -487.4906 XXXY=            -62.8201
 XXXZ=             61.1285 YYYX=             -3.5807 YYYZ=              8.2202 ZZZX=              6.1311
 ZZZY=             -4.3093 XXYY=          -1461.9207 XXZZ=          -1343.3258 YYZZ=           -262.2378
 XXYZ=              6.7127 YYXZ=              5.2650 ZZXY=             -1.9846
 N-N= 6.852590489415D+02 E-N=-2.463646160828D+03  KE= 4.702274018447D+02
 Leave Link  601 at Wed May  5 19:50:17 2021, MaxMem=   524288000 cpu:               0.4 elap:               0.5
 (Enter /opt/gaussian/g16_legacy/l9999.exe)
 1\1\GINC-TRUENO95\SP\RMP2-FC\6-31G(d)\C12H28\JRAMOS\05-May-2021\0\\#p 
 6-31g* mp2\\Input file generated by CHIRIPA (05-May-2021 14:51:11)\\0,
 1\C,0,-0.666,-0.374,0.\C,0,-1.882,0.553,0.\C,0,-3.207,-0.21,0.\H,0,-0.
 713,-1.03,-0.88\H,0,-0.713,-1.029,0.881\H,0,-1.832,1.207,-0.88\H,0,-1.
 832,1.207,0.88\H,0,-3.283,-0.85,0.885\H,0,-3.283,-0.85,-0.885\H,0,-4.0
 63,0.472,0.\C,0,0.666,0.374,0.\C,0,1.882,-0.553,0.\C,0,3.207,0.21,0.\H
 ,0,0.713,1.029,-0.881\H,0,0.713,1.03,0.88\H,0,1.832,-1.207,-0.88\H,0,1
 .832,-1.207,0.88\H,0,3.283,0.85,0.885\H,0,3.283,0.85,-0.885\H,0,4.063,
 -0.472,0.\C,0,-2.95148,-2.677962,-5.00102\C,0,-3.023694,-1.454856,-4.0
 86262\C,0,-1.74154,-0.622209,-4.110233\H,0,-2.100455,-3.303809,-4.6993
 3\H,0,-2.747271,-2.346997,-6.028714\H,0,-3.22908,-1.787933,-3.060839\H
 ,0,-3.874761,-0.831946,-4.390043\H,0,-1.535066,-0.261906,-5.123224\H,0
 ,-0.885716,-1.223325,-3.786468\H,0,-1.814971,0.247097,-3.449343\C,0,-4
 .225801,-3.520376,-4.987878\C,0,-4.153587,-4.743482,-5.902636\C,0,-5.4
 3574,-5.576129,-5.878665\H,0,-4.43001,-3.851341,-3.960184\H,0,-5.07682
 6,-2.894529,-5.289568\H,0,-3.30252,-5.366392,-5.598855\H,0,-3.948201,-
 4.410405,-6.928059\H,0,-6.291565,-4.975013,-6.202431\H,0,-5.642215,-5.
 936432,-4.865674\H,0,-5.36231,-6.445435,-6.539555\\Version=EM64L-G16Re
 vA.03\State=1-A\HF=-470.7330162\MP2=-472.3167489\RMSD=2.002e-09\PG=C01
  [X(C12H28)]\\@


 O WAD SOME POWER THE GIFTIE GIE US       
 TO SEE OURSELS AS OTHERS SEE US.....     
 IT WOULD FRAE MONIE A BLUNDER FREE US,   
                     AND FOOLISH NOTION...
 WHAT AIRS IN DRESS AND GAIT WAD LEA'E US,
                     AND EV'N DEVOTION....
                                          
              (ROBERT BURNS 'TO A LOUSE') 
 Job cpu time:       0 days  0 hours  1 minutes 44.8 seconds.
 Elapsed time:       0 days  0 hours  0 minutes 58.3 seconds.
 File lengths (MBytes):  RWF=     26 Int=      0 D2E=      0 Chk=      5 Scr=      1
 Normal termination of Gaussian 16 at Wed May  5 19:50:18 2021.
