 Entering Gaussian System, Link 0=/opt/gaussian/g16_legacy/g16
 Input=gaussian_03993_2_1.com
 Output=gaussian_03993_2_1.log
 Initial command:
 /opt/gaussian/g16_legacy/l1.exe "/scratch-local/jramos/2598610/Gau-10396.inp" -scrdir="/scratch-local/jramos/2598610/"
 Entering Link 1 = /opt/gaussian/g16_legacy/l1.exe PID=     10397.
  
 Copyright (c) 1988,1990,1992,1993,1995,1998,2003,2009,2016,
            Gaussian, Inc.  All Rights Reserved.
  
 This is part of the Gaussian(R) 16 program.  It is based on
 the Gaussian(R) 09 system (copyright 2009, Gaussian, Inc.),
 the Gaussian(R) 03 system (copyright 2003, Gaussian, Inc.),
 the Gaussian(R) 98 system (copyright 1998, Gaussian, Inc.),
 the Gaussian(R) 94 system (copyright 1995, Gaussian, Inc.),
 the Gaussian 92(TM) system (copyright 1992, Gaussian, Inc.),
 the Gaussian 90(TM) system (copyright 1990, Gaussian, Inc.),
 the Gaussian 88(TM) system (copyright 1988, Gaussian, Inc.),
 the Gaussian 86(TM) system (copyright 1986, Carnegie Mellon
 University), and the Gaussian 82(TM) system (copyright 1983,
 Carnegie Mellon University). Gaussian is a federally registered
 trademark of Gaussian, Inc.
  
 This software contains proprietary and confidential information,
 including trade secrets, belonging to Gaussian, Inc.
  
 This software is provided under written license and may be
 used, copied, transmitted, or stored only in accord with that
 written license.
  
 The following legend is applicable only to US Government
 contracts under FAR:
  
                    RESTRICTED RIGHTS LEGEND
  
 Use, reproduction and disclosure by the US Government is
 subject to restrictions as set forth in subparagraphs (a)
 and (c) of the Commercial Computer Software - Restricted
 Rights clause in FAR 52.227-19.
  
 Gaussian, Inc.
 340 Quinnipiac St., Bldg. 40, Wallingford CT 06492
  
  
 ---------------------------------------------------------------
 Warning -- This program may not be used in any manner that
 competes with the business of Gaussian, Inc. or will provide
 assistance to any competitor of Gaussian, Inc.  The licensee
 of this program is prohibited from giving any competitor of
 Gaussian, Inc. access to this program.  By using this program,
 the user acknowledges that Gaussian, Inc. is engaged in the
 business of creating and licensing software in the field of
 computational chemistry and represents and warrants to the
 licensee that it is not a competitor of Gaussian, Inc. and that
 it will not use this program in any manner prohibited above.
 ---------------------------------------------------------------
  

 Cite this work as:
 Gaussian 16, Revision A.03,
 M. J. Frisch, G. W. Trucks, H. B. Schlegel, G. E. Scuseria, 
 M. A. Robb, J. R. Cheeseman, G. Scalmani, V. Barone, 
 G. A. Petersson, H. Nakatsuji, X. Li, M. Caricato, A. V. Marenich, 
 J. Bloino, B. G. Janesko, R. Gomperts, B. Mennucci, H. P. Hratchian, 
 J. V. Ortiz, A. F. Izmaylov, J. L. Sonnenberg, D. Williams-Young, 
 F. Ding, F. Lipparini, F. Egidi, J. Goings, B. Peng, A. Petrone, 
 T. Henderson, D. Ranasinghe, V. G. Zakrzewski, J. Gao, N. Rega, 
 G. Zheng, W. Liang, M. Hada, M. Ehara, K. Toyota, R. Fukuda, 
 J. Hasegawa, M. Ishida, T. Nakajima, Y. Honda, O. Kitao, H. Nakai, 
 T. Vreven, K. Throssell, J. A. Montgomery, Jr., J. E. Peralta, 
 F. Ogliaro, M. J. Bearpark, J. J. Heyd, E. N. Brothers, K. N. Kudin, 
 V. N. Staroverov, T. A. Keith, R. Kobayashi, J. Normand, 
 K. Raghavachari, A. P. Rendell, J. C. Burant, S. S. Iyengar, 
 J. Tomasi, M. Cossi, J. M. Millam, M. Klene, C. Adamo, R. Cammi, 
 J. W. Ochterski, R. L. Martin, K. Morokuma, O. Farkas, 
 J. B. Foresman, and D. J. Fox, Gaussian, Inc., Wallingford CT, 2016.
 
 ******************************************
 Gaussian 16:  EM64L-G16RevA.03 25-Dec-2016
                 6-May-2021 
 ******************************************
 %chk=gaussian_03993_2_1.chk
 %nproc=2
 Will use up to    2 processors via shared memory.
 %mem=4000Mb
 -------------
 #p 6-31g* mp2
 -------------
 1/38=1,172=1/1;
 2/12=2,17=6,18=5,40=1/2;
 3/5=1,6=6,7=1,11=9,25=1,30=1/1,2,3;
 4//1;
 5/5=2,38=5/2;
 8/10=2/1;
 9/16=-3/6;
 6/7=2,8=2,9=2,10=2/1;
 99/5=1,9=1/99;
 Leave Link    1 at Thu May  6 14:18:44 2021, MaxMem=   524288000 cpu:               0.1 elap:               0.1
 (Enter /opt/gaussian/g16_legacy/l101.exe)
 ------------------------------------------------------
 Input file generated by CHIRIPA (05-May-2021 14:55:24)
 ------------------------------------------------------
 Symbolic Z-matrix:
 Charge =  0 Multiplicity = 1
 C                     1.91414   0.        0. 
 C                     1.21414   1.211     0. 
 C                    -0.18386   1.223     0. 
 C                    -0.85286   0.        0. 
 C                    -0.18386  -1.223     0. 
 C                     1.21414  -1.211     0. 
 H                     3.00014   0.        0. 
 H                     1.75514   2.153     0. 
 H                    -0.75086   2.146     0. 
 H                    -0.75086  -2.146     0. 
 H                     1.75514  -2.153     0. 
 N                    -2.33286   0.        0. 
 O                    -2.89886  -1.091     0. 
 O                    -2.89886   1.091     0. 
 C                     2.65902  -4.96566  -1.1497 
 C                     2.5007   -5.43852   0.29575 
 C                     1.27825  -6.33527   0.49383 
 H                     1.75241  -4.4244   -1.4531 
 H                     2.73519  -5.84178  -1.8085 
 H                     2.42623  -4.56176   0.95177 
 H                     3.40786  -5.97855   0.5958 
 H                     1.34867  -7.22741  -0.13682 
 H                     0.36146  -5.80258   0.22117 
 H                     1.18423  -6.66181   1.53422 
 C                     3.87666  -4.06826  -1.36362 
 C                     4.03497  -3.5954   -2.80907 
 C                     5.25743  -2.69865  -3.00715 
 H                     3.80048  -3.19214  -0.70482 
 H                     4.78326  -4.60952  -1.06022 
 H                     3.12781  -3.05537  -3.10912 
 H                     4.10944  -4.47216  -3.46509 
 H                     6.17421  -3.23134  -2.73449 
 H                     5.187    -1.8065   -2.3765 
 H                     5.35144  -2.37211  -4.04754 
 
 ITRead=  0  0  0  0  0  0  0  0  0  0  0  0  0  0  0  0  0  0  0  0
 ITRead=  0  0  0  0  0  0  0  0  0  0  0  0  0  0
 MicOpt= -1 -1 -1 -1 -1 -1 -1 -1 -1 -1 -1 -1 -1 -1 -1 -1 -1 -1 -1 -1
 MicOpt= -1 -1 -1 -1 -1 -1 -1 -1 -1 -1 -1 -1 -1 -1
 NAtoms=     34 NQM=       34 NQMF=       0 NMMI=      0 NMMIF=      0
                NMic=       0 NMicF=      0.
                    Isotopes and Nuclear Properties:
 (Nuclear quadrupole moments (NQMom) in fm**2, nuclear magnetic moments (NMagM)
  in nuclear magnetons)

  Atom         1           2           3           4           5           6           7           8           9          10
 IAtWgt=          12          12          12          12          12          12           1           1           1           1
 AtmWgt=  12.0000000  12.0000000  12.0000000  12.0000000  12.0000000  12.0000000   1.0078250   1.0078250   1.0078250   1.0078250
 NucSpn=           0           0           0           0           0           0           1           1           1           1
 AtZEff=  -0.0000000  -0.0000000  -0.0000000  -0.0000000  -0.0000000  -0.0000000  -0.0000000  -0.0000000  -0.0000000  -0.0000000
 NQMom=    0.0000000   0.0000000   0.0000000   0.0000000   0.0000000   0.0000000   0.0000000   0.0000000   0.0000000   0.0000000
 NMagM=    0.0000000   0.0000000   0.0000000   0.0000000   0.0000000   0.0000000   2.7928460   2.7928460   2.7928460   2.7928460
 AtZNuc=   6.0000000   6.0000000   6.0000000   6.0000000   6.0000000   6.0000000   1.0000000   1.0000000   1.0000000   1.0000000

  Atom        11          12          13          14          15          16          17          18          19          20
 IAtWgt=           1          14          16          16          12          12          12           1           1           1
 AtmWgt=   1.0078250  14.0030740  15.9949146  15.9949146  12.0000000  12.0000000  12.0000000   1.0078250   1.0078250   1.0078250
 NucSpn=           1           2           0           0           0           0           0           1           1           1
 AtZEff=  -0.0000000  -0.0000000  -0.0000000  -0.0000000  -0.0000000  -0.0000000  -0.0000000  -0.0000000  -0.0000000  -0.0000000
 NQMom=    0.0000000   2.0440000   0.0000000   0.0000000   0.0000000   0.0000000   0.0000000   0.0000000   0.0000000   0.0000000
 NMagM=    2.7928460   0.4037610   0.0000000   0.0000000   0.0000000   0.0000000   0.0000000   2.7928460   2.7928460   2.7928460
 AtZNuc=   1.0000000   7.0000000   8.0000000   8.0000000   6.0000000   6.0000000   6.0000000   1.0000000   1.0000000   1.0000000

  Atom        21          22          23          24          25          26          27          28          29          30
 IAtWgt=           1           1           1           1          12          12          12           1           1           1
 AtmWgt=   1.0078250   1.0078250   1.0078250   1.0078250  12.0000000  12.0000000  12.0000000   1.0078250   1.0078250   1.0078250
 NucSpn=           1           1           1           1           0           0           0           1           1           1
 AtZEff=  -0.0000000  -0.0000000  -0.0000000  -0.0000000  -0.0000000  -0.0000000  -0.0000000  -0.0000000  -0.0000000  -0.0000000
 NQMom=    0.0000000   0.0000000   0.0000000   0.0000000   0.0000000   0.0000000   0.0000000   0.0000000   0.0000000   0.0000000
 NMagM=    2.7928460   2.7928460   2.7928460   2.7928460   0.0000000   0.0000000   0.0000000   2.7928460   2.7928460   2.7928460
 AtZNuc=   1.0000000   1.0000000   1.0000000   1.0000000   6.0000000   6.0000000   6.0000000   1.0000000   1.0000000   1.0000000

  Atom        31          32          33          34
 IAtWgt=           1           1           1           1
 AtmWgt=   1.0078250   1.0078250   1.0078250   1.0078250
 NucSpn=           1           1           1           1
 AtZEff=  -0.0000000  -0.0000000  -0.0000000  -0.0000000
 NQMom=    0.0000000   0.0000000   0.0000000   0.0000000
 NMagM=    2.7928460   2.7928460   2.7928460   2.7928460
 AtZNuc=   1.0000000   1.0000000   1.0000000   1.0000000
 Leave Link  101 at Thu May  6 14:18:44 2021, MaxMem=   524288000 cpu:               0.2 elap:               0.1
 (Enter /opt/gaussian/g16_legacy/l202.exe)
                          Input orientation:                          
 ---------------------------------------------------------------------
 Center     Atomic      Atomic             Coordinates (Angstroms)
 Number     Number       Type             X           Y           Z
 ---------------------------------------------------------------------
      1          6           0        1.914143    0.000000    0.000000
      2          6           0        1.214143    1.211000    0.000000
      3          6           0       -0.183857    1.223000    0.000000
      4          6           0       -0.852857    0.000000    0.000000
      5          6           0       -0.183857   -1.223000    0.000000
      6          6           0        1.214143   -1.211000    0.000000
      7          1           0        3.000143    0.000000    0.000000
      8          1           0        1.755143    2.153000    0.000000
      9          1           0       -0.750857    2.146000    0.000000
     10          1           0       -0.750857   -2.146000    0.000000
     11          1           0        1.755143   -2.153000    0.000000
     12          7           0       -2.332857    0.000000    0.000000
     13          8           0       -2.898857   -1.091000    0.000000
     14          8           0       -2.898857    1.091000    0.000000
     15          6           0        2.659016   -4.965658   -1.149704
     16          6           0        2.500699   -5.438519    0.295745
     17          6           0        1.278247   -6.335272    0.493832
     18          1           0        1.752412   -4.424397   -1.453104
     19          1           0        2.735192   -5.841775   -1.808499
     20          1           0        2.426233   -4.561763    0.951771
     21          1           0        3.407863   -5.978551    0.595802
     22          1           0        1.348670   -7.227415   -0.136819
     23          1           0        0.361462   -5.802578    0.221173
     24          1           0        1.184234   -6.661806    1.534215
     25          6           0        3.876657   -4.068262   -1.363616
     26          6           0        4.034973   -3.595401   -2.809066
     27          6           0        5.257426   -2.698647   -3.007153
     28          1           0        3.800480   -3.192144   -0.704821
     29          1           0        4.783261   -4.609522   -1.060216
     30          1           0        3.127809   -3.055368   -3.109123
     31          1           0        4.109439   -4.472156   -3.465092
     32          1           0        6.174210   -3.231342   -2.734493
     33          1           0        5.187003   -1.806504   -2.376501
     34          1           0        5.351439   -2.372113   -4.047536
 ---------------------------------------------------------------------
                    Distance matrix (angstroms):
                    1          2          3          4          5
     1  C    0.000000
     2  C    1.398757   0.000000
     3  C    2.428443   1.398052   0.000000
     4  C    2.767000   2.395623   1.394019   0.000000
     5  C    2.428443   2.806913   2.446000   1.394019   0.000000
     6  C    1.398757   2.422000   2.806913   2.395623   1.398052
     7  H    1.086000   2.157850   3.410804   3.853000   3.410804
     8  H    2.158863   1.086299   2.150493   3.381874   3.893212
     9  H    3.421628   2.176109   1.083244   2.148423   3.416380
    10  H    3.421628   3.889817   3.416380   2.148423   1.083244
    11  H    2.158863   3.407224   3.893212   3.381874   2.150493
    12  N    4.247000   3.748030   2.472636   1.480000   2.472636
    13  O    4.935104   4.713382   3.567327   2.318706   2.718207
    14  O    4.935104   4.114750   2.718207   2.318706   3.567327
    15  C    5.151157   6.446750   6.906753   6.189736   4.838516
    16  C    5.478047   6.779292   7.188195   6.396194   5.006486
    17  C    6.386228   7.562685   7.714214   6.702324   5.340126
    18  H    4.659716   5.844565   6.144407   5.336125   4.013676
    19  H    6.170180   7.438138   7.855098   7.090212   5.755397
    20  H    4.688047   5.974933   6.417314   5.698068   4.343475
    21  H    6.191062   7.540360   8.069558   7.365581   5.989215
    22  H    7.250794   8.440596   8.589346   7.556518   6.198416
    23  H    6.010794   7.068682   7.050180   5.932403   4.617231
    24  H    6.875045   8.020959   8.148353   7.133247   5.814301
    25  C    4.718227   6.067869   6.807692   6.385805   5.142250
    26  C    5.031469   6.240947   6.993309   6.686452   5.596219
    27  C    5.244350   6.377809   7.350500   7.325382   6.389684
    28  H    3.774231   5.154958   5.988757   5.686836   4.499916
    29  H    5.532051   6.909496   7.733992   7.357824   6.104494
    30  H    4.524920   5.615217   6.240049   5.903187   4.898097
    31  H    6.068473   7.258641   7.929316   7.525385   6.402833
    32  H    6.005597   7.198202   8.230652   8.203578   7.206657
    33  H    4.429766   5.526003   6.608463   6.737293   5.902065
    34  H    5.815881   6.807236   7.742538   7.778352   6.952878
                    6          7          8          9         10
     6  C    0.000000
     7  H    2.157850   0.000000
     8  H    3.407224   2.487053   0.000000
     9  H    3.889817   4.321495   2.506010   0.000000
    10  H    2.176109   4.321495   4.976087   4.292000   0.000000
    11  H    1.086299   2.487053   4.306000   4.976087   2.506010
    12  N    3.748030   5.333000   4.620298   2.666091   2.666091
    13  O    4.114750   5.999040   5.673028   3.884852   2.393100
    14  O    4.713382   5.999040   4.773632   2.393100   3.884852
    15  C    4.184129   5.108419   7.267331   7.970240   4.571600
    16  C    4.428838   5.469406   7.633772   8.257422   4.636892
    17  C    5.148412   6.583652   8.515989   8.734593   4.680933
    18  H    3.567515   4.821165   6.735998   7.179692   3.683607
    19  H    5.198878   6.121046   8.255155   8.900997   5.392769
    20  H    3.688176   4.695202   6.815003   7.482904   4.103130
    21  H    5.281754   6.021984   8.319170   9.146489   5.686684
    22  H    6.019474   7.414959   9.390214   9.606646   5.499774
    23  H    4.675315   6.378202   8.079758   8.029076   3.828411
    24  H    5.662685   7.073260   8.965520   9.147450   5.146931
    25  C    4.136711   4.379324   6.713000   7.867044   5.193113
    26  C    4.640399   4.678529   6.792098   7.984905   5.735485
    27  C    5.253970   4.628282   6.696823   8.283299   6.741502
    28  H    3.333293   3.365575   5.766346   7.050335   4.722908
    29  H    5.041092   5.054826   7.485002   8.797022   6.149753
    30  H    4.090288   4.360988   6.219160   7.194785   5.053479
    31  H    5.569986   5.765204   7.838512   8.912313   6.406274
    32  H    6.013443   5.290910   7.483097   9.184215   7.524093
    33  H    4.667547   3.700482   5.753529   7.518526   6.404779
    34  H    5.903215   5.247672   7.056383   8.604296   7.326097
                   11         12         13         14         15
    11  H    0.000000
    12  N    4.620298   0.000000
    13  O    4.773632   1.229080   0.000000
    14  O    5.673028   1.229080   2.182000   0.000000
    15  C    3.170150   7.134310   6.872026   8.300294   0.000000
    16  C    3.382004   7.282048   6.938558   8.478047   1.529047
    17  C    4.238242   7.308872   6.722682   8.534728   2.546287
    18  H    2.696435   6.194855   5.904011   7.359716   1.098611
    19  H    4.223532   7.942426   7.588349   9.114634   1.098815
    20  H    2.675513   6.660667   6.427180   7.824077   2.152560
    21  H    4.209668   8.309869   8.001116   9.492536   2.152560
    22  H    5.092507   8.112206   7.464301   9.341104   2.803299
    23  H    3.912887   6.401420   5.733896   7.628893   2.803300
    24  H    4.796779   7.687874   7.075262   8.895586   3.500760
    25  C    3.166781   7.547733   7.525366   8.624675   1.527654
    26  C    3.894740   7.833710   7.889289   8.827865   2.554280
    27  C    4.648299   8.598724   8.840387   9.483108   3.916783
    28  H    2.399999   6.950135   7.056394   7.982682   2.155508
    29  H    4.040799   8.544641   8.515808   9.624705   2.155750
    30  H    3.516408   6.987188   7.060176   7.948567   2.776382
    31  H    4.788325   8.573810   8.517939   9.595404   2.776381
    32  H    5.307394   9.502064   9.714889  10.415404   4.228002
    33  H    4.188732   8.090705   8.458182   8.912038   4.228002
    34  H    5.418847   9.003215   9.278533   9.820544   4.730016
                   16         17         18         19         20
    16  C    0.000000
    17  C    1.528984   0.000000
    18  H    2.155655   2.768905   0.000000
    19  H    2.155329   2.768927   1.761000   0.000000
    20  H    1.097550   2.161692   2.501265   3.058264   0.000000
    21  H    1.097550   2.161692   3.058419   2.500371   1.760000
    22  H    2.171274   1.094806   3.122903   2.576229   3.074389
    23  H    2.171275   1.094806   2.576301   3.123411   2.517275
    24  H    2.182503   1.094468   3.775301   3.775137   2.508383
    25  C    2.554279   3.916782   2.155750   2.155507   2.776381
    26  C    3.923128   5.100546   2.781358   2.781503   4.203070
    27  C    5.100547   6.427737   4.204569   4.204484   5.211519
    28  H    2.781504   4.204484   2.504587   3.061615   2.551217
    29  H    2.781359   4.204569   3.061810   2.504588   3.099347
    30  H    4.203071   5.211519   2.551148   3.099973   4.387744
    31  H    4.203070   5.211519   3.099347   2.551218   4.727567
    32  H    5.248681   6.635278   4.755800   4.415730   5.422720
    33  H    5.248682   6.635279   4.416157   4.755777   5.127446
    34  H    6.032715   7.274720   4.888348   4.888414   6.192291
                   21         22         23         24         25
    21  H    0.000000
    22  H    2.517274   0.000000
    23  H    3.074390   1.770000   0.000000
    24  H    2.508382   1.771809   1.771809   0.000000
    25  C    2.776381   4.228002   4.228002   4.730014   0.000000
    26  C    4.203070   5.248681   5.248682   6.032714   1.529048
    27  C    5.211520   6.635279   6.635280   7.274720   2.546288
    28  H    3.099973   4.755777   4.415730   4.888413   1.098816
    29  H    2.551148   4.416157   4.755801   4.888347   1.098610
    30  H    4.727568   5.422721   5.127447   6.192291   2.152562
    31  H    4.387744   5.127446   5.422721   6.192291   2.152561
    32  H    5.127446   6.782503   7.009654   7.408766   2.803300
    33  H    5.422721   7.009654   6.782504   7.408766   2.803300
    34  H    6.192291   7.408767   7.408768   8.180648   3.500761
                   26         27         28         29         30
    26  C    0.000000
    27  C    1.528986   0.000000
    28  H    2.155331   2.768928   0.000000
    29  H    2.155656   2.768906   1.761001   0.000000
    30  H    1.097550   2.161693   2.500372   3.058420   0.000000
    31  H    1.097549   2.161693   3.058265   2.501266   1.760000
    32  H    2.171275   1.094806   3.123411   2.576300   3.074390
    33  H    2.171276   1.094806   2.576229   3.122903   2.517276
    34  H    2.182504   1.094468   3.775138   3.775302   2.508383
                   31         32         33         34
    31  H    0.000000
    32  H    2.517275   0.000000
    33  H    3.074390   1.770000   0.000000
    34  H    2.508383   1.771809   1.771810   0.000000
 Stoichiometry    C12H19NO2
 Framework group  C1[X(C12H19NO2)]
 Deg. of freedom    96
 Full point group                 C1      NOp   1
 Largest Abelian subgroup         C1      NOp   1
 Largest concise Abelian subgroup C1      NOp   1
                         Standard orientation:                         
 ---------------------------------------------------------------------
 Center     Atomic      Atomic             Coordinates (Angstroms)
 Number     Number       Type             X           Y           Z
 ---------------------------------------------------------------------
      1          6           0       -0.869758   -1.728559   -1.077561
      2          6           0       -2.185100   -2.191085   -0.965910
      3          6           0       -3.182882   -1.371414   -0.430073
      4          6           0       -2.828544   -0.089015   -0.013916
      5          6           0       -1.527024    0.400572   -0.112090
      6          6           0       -0.545489   -0.436485   -0.651046
      7          1           0       -0.100968   -2.372052   -1.495023
      8          1           0       -2.439823   -3.194071   -1.296333
      9          1           0       -4.209106   -1.704108   -0.332108
     10          1           0       -1.303569    1.405200    0.225858
     11          1           0        0.475191   -0.074621   -0.736547
     12          7           0       -3.876251    0.787937    0.555002
     13          8           0       -3.538358    1.913678    0.914406
     14          8           0       -5.015497    0.332944    0.630743
     15          6           0        3.250730    1.022420    0.332440
     16          6           0        3.167584    1.967959   -0.866320
     17          6           0        2.869365    3.411728   -0.460871
     18          1           0        2.303641    1.060627    0.887875
     19          1           0        4.030470    1.379914    1.019170
     20          1           0        2.389180    1.608013   -1.551260
     21          1           0        4.114912    1.927352   -1.419074
     22          1           0        3.650212    3.794155    0.204432
     23          1           0        1.914675    3.473003    0.071495
     24          1           0        2.814282    4.070472   -1.333157
     25          6           0        3.548296   -0.424539   -0.056780
     26          6           0        3.631442   -1.370077    1.141982
     27          6           0        3.929661   -2.813848    0.736532
     28          1           0        2.768555   -0.782033   -0.743510
     29          1           0        4.495385   -0.462746   -0.612214
     30          1           0        2.684114   -1.329471    1.694736
     31          1           0        4.409845   -1.010132    1.826922
     32          1           0        4.884351   -2.875121    0.204166
     33          1           0        3.148814   -3.196275    0.071229
     34          1           0        3.984744   -3.472592    1.608818
 ---------------------------------------------------------------------
 Rotational constants (GHZ):           0.6923383           0.2220056           0.1819141
 Leave Link  202 at Thu May  6 14:18:45 2021, MaxMem=   524288000 cpu:               0.0 elap:               0.1
 (Enter /opt/gaussian/g16_legacy/l301.exe)
 Standard basis: 6-31G(d) (6D, 7F)
 Ernie: Thresh=  0.10000D-02 Tol=  0.10000D-05 Strict=F.
 There are   263 symmetry adapted cartesian basis functions of A   symmetry.
 There are   263 symmetry adapted basis functions of A   symmetry.
   263 basis functions,   496 primitive gaussians,   263 cartesian basis functions
    57 alpha electrons       57 beta electrons
       nuclear repulsion energy       921.0015136996 Hartrees.
 IExCor=    0 DFT=F Ex=HF Corr=None ExCW=0 ScaHFX=  1.000000
 ScaDFX=  1.000000  1.000000  1.000000  1.000000 ScalE2=  1.000000  1.000000
 IRadAn=      5 IRanWt=     -1 IRanGd=            0 ICorTp=0 IEmpDi=  4
 NAtoms=   34 NActive=   34 NUniq=   34 SFac= 1.00D+00 NAtFMM=   60 NAOKFM=F Big=F
 Integral buffers will be    131072 words long.
 Raffenetti 1 integral format.
 Two-electron integral symmetry is turned on.
 Leave Link  301 at Thu May  6 14:18:45 2021, MaxMem=   524288000 cpu:               0.1 elap:               0.1
 (Enter /opt/gaussian/g16_legacy/l302.exe)
 NPDir=0 NMtPBC=     1 NCelOv=     1 NCel=       1 NClECP=     1 NCelD=      1
         NCelK=      1 NCelE2=     1 NClLst=     1 CellRange=     0.0.
 One-electron integrals computed using PRISM.
 One-electron integral symmetry used in STVInt
 NBasis=   263 RedAO= T EigKep=  4.71D-04  NBF=   263
 NBsUse=   263 1.00D-06 EigRej= -1.00D+00 NBFU=   263
 Leave Link  302 at Thu May  6 14:18:45 2021, MaxMem=   524288000 cpu:               0.5 elap:               0.4
 (Enter /opt/gaussian/g16_legacy/l303.exe)
 DipDrv:  MaxL=1.
 Leave Link  303 at Thu May  6 14:18:46 2021, MaxMem=   524288000 cpu:               0.1 elap:               0.1
 (Enter /opt/gaussian/g16_legacy/l401.exe)
 ExpMin= 1.61D-01 ExpMax= 5.48D+03 ExpMxC= 8.25D+02 IAcc=3 IRadAn=         5 AccDes= 0.00D+00
 Harris functional with IExCor=  205 and IRadAn=       5 diagonalized for initial guess.
 HarFok:  IExCor=  205 AccDes= 0.00D+00 IRadAn=         5 IDoV= 1 UseB2=F ITyADJ=14
 ICtDFT=  3500011 ScaDFX=  1.000000  1.000000  1.000000  1.000000
 FoFCou: FMM=F IPFlag=           0 FMFlag=      100000 FMFlg1=           0
         NFxFlg=           0 DoJE=T BraDBF=F KetDBF=T FulRan=T
         wScrn=  0.000000 ICntrl=       500 IOpCl=  0 I1Cent=   200000004 NGrid=           0
         NMat0=    1 NMatS0=      1 NMatT0=    0 NMatD0=    1 NMtDS0=    0 NMtDT0=    0
 Petite list used in FoFCou.
 Harris En= -670.655039126768    
 JPrj=0 DoOrth=F DoCkMO=F.
 Leave Link  401 at Thu May  6 14:18:51 2021, MaxMem=   524288000 cpu:               9.6 elap:               5.0
 (Enter /opt/gaussian/g16_legacy/l502.exe)
 Integral symmetry usage will be decided dynamically.
 Closed shell SCF:
 Using DIIS extrapolation, IDIIS=  1040.
 NGot=   524288000 LenX=   524144919 LenY=   524075309
 Requested convergence on RMS density matrix=1.00D-08 within 128 cycles.
 Requested convergence on MAX density matrix=1.00D-06.
 Requested convergence on             energy=1.00D-06.
 No special actions if energy rises.
 Fock matrices will be formed incrementally for  20 cycles.
 Integral accuracy reduced to 1.0D-05 until final iterations.

 Cycle   1  Pass 0  IDiag  1:
 FoFJK:  IHMeth= 1 ICntrl=       0 DoSepK=F KAlg= 0 I1Cent=           0 FoldK=F
 IRaf= 780000000 NMat=       1 IRICut=       1 DoRegI=T DoRafI=F ISym2E= 0 IDoP0=0 IntGTp=1.
 FoFCou: FMM=F IPFlag=           0 FMFlag=      100000 FMFlg1=           0
         NFxFlg=           0 DoJE=F BraDBF=F KetDBF=F FulRan=T
         wScrn=  0.000000 ICntrl=         0 IOpCl=  0 I1Cent=           0 NGrid=           0
         NMat0=    1 NMatS0=      1 NMatT0=    0 NMatD0=    1 NMtDS0=    0 NMtDT0=    0
 Symmetry not used in FoFCou.
 E= -668.742363546112    
 DIIS: error= 6.14D-02 at cycle   1 NSaved=   1.
 NSaved= 1 IEnMin= 1 EnMin= -668.742363546112     IErMin= 1 ErrMin= 6.14D-02
 ErrMax= 6.14D-02  0.00D+00 EMaxC= 1.00D-01 BMatC= 1.17D+00 BMatP= 1.17D+00
 IDIUse=3 WtCom= 3.86D-01 WtEn= 6.14D-01
 Coeff-Com:  0.100D+01
 Coeff-En:   0.100D+01
 Coeff:      0.100D+01
 Gap=     0.556 Goal=   None    Shift=    0.000
 GapD=    0.556 DampG=2.000 DampE=0.500 DampFc=1.0000 IDamp=-1.
 RMSDP=4.60D-03 MaxDP=1.18D-01              OVMax= 1.51D-01

 Cycle   2  Pass 0  IDiag  1:
 RMSU=  4.47D-03    CP:  9.48D-01
 E= -669.358611768224     Delta-E=       -0.616248222112 Rises=F Damp=F
 DIIS: error= 2.77D-02 at cycle   2 NSaved=   2.
 NSaved= 2 IEnMin= 2 EnMin= -669.358611768224     IErMin= 2 ErrMin= 2.77D-02
 ErrMax= 2.77D-02  0.00D+00 EMaxC= 1.00D-01 BMatC= 2.17D-01 BMatP= 1.17D+00
 IDIUse=3 WtCom= 7.23D-01 WtEn= 2.77D-01
 Coeff-Com:  0.246D+00 0.754D+00
 Coeff-En:   0.000D+00 0.100D+01
 Coeff:      0.178D+00 0.822D+00
 Gap=     0.576 Goal=   None    Shift=    0.000
 RMSDP=1.81D-03 MaxDP=8.39D-02 DE=-6.16D-01 OVMax= 1.22D-01

 Cycle   3  Pass 0  IDiag  1:
 RMSU=  1.44D-03    CP:  9.57D-01  7.58D-01
 E= -669.507357779067     Delta-E=       -0.148746010843 Rises=F Damp=F
 DIIS: error= 1.39D-02 at cycle   3 NSaved=   3.
 NSaved= 3 IEnMin= 3 EnMin= -669.507357779067     IErMin= 3 ErrMin= 1.39D-02
 ErrMax= 1.39D-02  0.00D+00 EMaxC= 1.00D-01 BMatC= 3.60D-02 BMatP= 2.17D-01
 IDIUse=3 WtCom= 8.61D-01 WtEn= 1.39D-01
 Coeff-Com: -0.943D-02 0.268D+00 0.741D+00
 Coeff-En:   0.000D+00 0.000D+00 0.100D+01
 Coeff:     -0.813D-02 0.231D+00 0.777D+00
 Gap=     0.426 Goal=   None    Shift=    0.000
 RMSDP=5.97D-04 MaxDP=3.13D-02 DE=-1.49D-01 OVMax= 5.01D-02

 Cycle   4  Pass 0  IDiag  1:
 RMSU=  4.00D-04    CP:  9.55D-01  8.35D-01  8.08D-01
 E= -669.532705073981     Delta-E=       -0.025347294913 Rises=F Damp=F
 DIIS: error= 4.40D-03 at cycle   4 NSaved=   4.
 NSaved= 4 IEnMin= 4 EnMin= -669.532705073981     IErMin= 4 ErrMin= 4.40D-03
 ErrMax= 4.40D-03  0.00D+00 EMaxC= 1.00D-01 BMatC= 2.93D-03 BMatP= 3.60D-02
 IDIUse=3 WtCom= 9.56D-01 WtEn= 4.40D-02
 Coeff-Com: -0.132D-01 0.431D-01 0.292D+00 0.678D+00
 Coeff-En:   0.000D+00 0.000D+00 0.000D+00 0.100D+01
 Coeff:     -0.126D-01 0.412D-01 0.279D+00 0.692D+00
 Gap=     0.412 Goal=   None    Shift=    0.000
 RMSDP=1.72D-04 MaxDP=8.82D-03 DE=-2.53D-02 OVMax= 1.44D-02

 Cycle   5  Pass 0  IDiag  1:
 RMSU=  9.74D-05    CP:  9.55D-01  8.37D-01  8.80D-01  7.62D-01
 E= -669.535072458626     Delta-E=       -0.002367384645 Rises=F Damp=F
 DIIS: error= 4.98D-04 at cycle   5 NSaved=   5.
 NSaved= 5 IEnMin= 5 EnMin= -669.535072458626     IErMin= 5 ErrMin= 4.98D-04
 ErrMax= 4.98D-04  0.00D+00 EMaxC= 1.00D-01 BMatC= 5.96D-05 BMatP= 2.93D-03
 IDIUse=3 WtCom= 9.95D-01 WtEn= 4.98D-03
 Coeff-Com:  0.204D-02-0.193D-01-0.766D-01-0.325D-01 0.113D+01
 Coeff-En:   0.000D+00 0.000D+00 0.000D+00 0.000D+00 0.100D+01
 Coeff:      0.203D-02-0.192D-01-0.762D-01-0.323D-01 0.113D+01
 Gap=     0.414 Goal=   None    Shift=    0.000
 RMSDP=5.32D-05 MaxDP=1.65D-03 DE=-2.37D-03 OVMax= 4.69D-03

 Cycle   6  Pass 0  IDiag  1:
 RMSU=  2.46D-05    CP:  9.55D-01  8.40D-01  8.93D-01  8.46D-01  1.25D+00
 E= -669.535182171284     Delta-E=       -0.000109712659 Rises=F Damp=F
 DIIS: error= 2.14D-04 at cycle   6 NSaved=   6.
 NSaved= 6 IEnMin= 6 EnMin= -669.535182171284     IErMin= 6 ErrMin= 2.14D-04
 ErrMax= 2.14D-04  0.00D+00 EMaxC= 1.00D-01 BMatC= 5.79D-06 BMatP= 5.96D-05
 IDIUse=3 WtCom= 9.98D-01 WtEn= 2.14D-03
 Coeff-Com:  0.126D-02-0.655D-02-0.341D-01-0.524D-01 0.141D+00 0.951D+00
 Coeff-En:   0.000D+00 0.000D+00 0.000D+00 0.000D+00 0.000D+00 0.100D+01
 Coeff:      0.125D-02-0.654D-02-0.340D-01-0.523D-01 0.141D+00 0.951D+00
 Gap=     0.414 Goal=   None    Shift=    0.000
 RMSDP=1.73D-05 MaxDP=5.04D-04 DE=-1.10D-04 OVMax= 1.66D-03

 Cycle   7  Pass 0  IDiag  1:
 RMSU=  8.71D-06    CP:  9.55D-01  8.40D-01  8.96D-01  8.58D-01  1.38D+00
                    CP:  1.18D+00
 E= -669.535196952344     Delta-E=       -0.000014781060 Rises=F Damp=F
 DIIS: error= 1.39D-04 at cycle   7 NSaved=   7.
 NSaved= 7 IEnMin= 7 EnMin= -669.535196952344     IErMin= 7 ErrMin= 1.39D-04
 ErrMax= 1.39D-04  0.00D+00 EMaxC= 1.00D-01 BMatC= 1.12D-06 BMatP= 5.79D-06
 IDIUse=3 WtCom= 9.99D-01 WtEn= 1.39D-03
 Coeff-Com: -0.253D-03 0.242D-02 0.952D-02 0.581D-02-0.151D+00 0.979D-02
 Coeff-Com:  0.112D+01
 Coeff-En:   0.000D+00 0.000D+00 0.000D+00 0.000D+00 0.000D+00 0.000D+00
 Coeff-En:   0.100D+01
 Coeff:     -0.253D-03 0.241D-02 0.951D-02 0.580D-02-0.151D+00 0.977D-02
 Coeff:      0.112D+01
 Gap=     0.414 Goal=   None    Shift=    0.000
 RMSDP=8.78D-06 MaxDP=4.45D-04 DE=-1.48D-05 OVMax= 1.33D-03

 Initial convergence to 1.0D-05 achieved.  Increase integral accuracy.
 Cycle   8  Pass 1  IDiag  1:
 E= -669.535201303447     Delta-E=       -0.000004351102 Rises=F Damp=F
 DIIS: error= 6.96D-05 at cycle   1 NSaved=   1.
 NSaved= 1 IEnMin= 1 EnMin= -669.535201303447     IErMin= 1 ErrMin= 6.96D-05
 ErrMax= 6.96D-05  0.00D+00 EMaxC= 1.00D-01 BMatC= 4.15D-07 BMatP= 4.15D-07
 IDIUse=1 WtCom= 1.00D+00 WtEn= 0.00D+00
 Coeff-Com:  0.100D+01
 Coeff:      0.100D+01
 Gap=     0.414 Goal=   None    Shift=    0.000
 RMSDP=8.78D-06 MaxDP=4.45D-04 DE=-4.35D-06 OVMax= 5.26D-04

 Cycle   9  Pass 1  IDiag  1:
 RMSU=  1.83D-05    CP:  1.00D+00
 E= -669.535202333903     Delta-E=       -0.000001030456 Rises=F Damp=F
 DIIS: error= 5.24D-05 at cycle   2 NSaved=   2.
 NSaved= 2 IEnMin= 2 EnMin= -669.535202333903     IErMin= 2 ErrMin= 5.24D-05
 ErrMax= 5.24D-05  0.00D+00 EMaxC= 1.00D-01 BMatC= 1.12D-07 BMatP= 4.15D-07
 IDIUse=1 WtCom= 1.00D+00 WtEn= 0.00D+00
 Coeff-Com: -0.497D-02 0.100D+01
 Coeff:     -0.497D-02 0.100D+01
 Gap=     0.414 Goal=   None    Shift=    0.000
 RMSDP=2.40D-06 MaxDP=1.02D-04 DE=-1.03D-06 OVMax= 3.83D-04

 Cycle  10  Pass 1  IDiag  1:
 RMSU=  2.12D-06    CP:  1.00D+00  1.06D+00
 E= -669.535202733246     Delta-E=       -0.000000399343 Rises=F Damp=F
 DIIS: error= 3.24D-05 at cycle   3 NSaved=   3.
 NSaved= 3 IEnMin= 3 EnMin= -669.535202733246     IErMin= 3 ErrMin= 3.24D-05
 ErrMax= 3.24D-05  0.00D+00 EMaxC= 1.00D-01 BMatC= 5.12D-08 BMatP= 1.12D-07
 IDIUse=1 WtCom= 1.00D+00 WtEn= 0.00D+00
 Coeff-Com: -0.276D+00 0.113D+00 0.116D+01
 Coeff:     -0.276D+00 0.113D+00 0.116D+01
 Gap=     0.414 Goal=   None    Shift=    0.000
 RMSDP=2.19D-06 MaxDP=7.29D-05 DE=-3.99D-07 OVMax= 3.33D-04

 Cycle  11  Pass 1  IDiag  1:
 RMSU=  1.36D-06    CP:  1.00D+00  1.10D+00  1.74D+00
 E= -669.535202978421     Delta-E=       -0.000000245175 Rises=F Damp=F
 DIIS: error= 1.58D-05 at cycle   4 NSaved=   4.
 NSaved= 4 IEnMin= 4 EnMin= -669.535202978421     IErMin= 4 ErrMin= 1.58D-05
 ErrMax= 1.58D-05  0.00D+00 EMaxC= 1.00D-01 BMatC= 1.02D-08 BMatP= 5.12D-08
 IDIUse=1 WtCom= 1.00D+00 WtEn= 0.00D+00
 Coeff-Com:  0.143D-01-0.393D+00-0.815D-01 0.146D+01
 Coeff:      0.143D-01-0.393D+00-0.815D-01 0.146D+01
 Gap=     0.414 Goal=   None    Shift=    0.000
 RMSDP=1.77D-06 MaxDP=6.48D-05 DE=-2.45D-07 OVMax= 2.78D-04

 Cycle  12  Pass 1  IDiag  1:
 RMSU=  2.20D-07    CP:  1.00D+00  1.10D+00  2.50D+00  1.52D+00
 E= -669.535203045628     Delta-E=       -0.000000067207 Rises=F Damp=F
 DIIS: error= 1.69D-06 at cycle   5 NSaved=   5.
 NSaved= 5 IEnMin= 5 EnMin= -669.535203045628     IErMin= 5 ErrMin= 1.69D-06
 ErrMax= 1.69D-06  0.00D+00 EMaxC= 1.00D-01 BMatC= 6.93D-10 BMatP= 1.02D-08
 IDIUse=1 WtCom= 1.00D+00 WtEn= 0.00D+00
 Coeff-Com:  0.166D-01-0.162D+00-0.711D-01 0.586D+00 0.631D+00
 Coeff:      0.166D-01-0.162D+00-0.711D-01 0.586D+00 0.631D+00
 Gap=     0.414 Goal=   None    Shift=    0.000
 RMSDP=1.10D-07 MaxDP=4.88D-06 DE=-6.72D-08 OVMax= 1.19D-05

 Cycle  13  Pass 1  IDiag  1:
 RMSU=  7.85D-08    CP:  1.00D+00  1.10D+00  2.53D+00  1.55D+00  9.50D-01
 E= -669.535203046366     Delta-E=       -0.000000000739 Rises=F Damp=F
 DIIS: error= 8.54D-07 at cycle   6 NSaved=   6.
 NSaved= 6 IEnMin= 6 EnMin= -669.535203046366     IErMin= 6 ErrMin= 8.54D-07
 ErrMax= 8.54D-07  0.00D+00 EMaxC= 1.00D-01 BMatC= 4.34D-11 BMatP= 6.93D-10
 IDIUse=1 WtCom= 1.00D+00 WtEn= 0.00D+00
 Coeff-Com: -0.270D-02 0.630D-01 0.153D-01-0.238D+00-0.732D-01 0.124D+01
 Coeff:     -0.270D-02 0.630D-01 0.153D-01-0.238D+00-0.732D-01 0.124D+01
 Gap=     0.414 Goal=   None    Shift=    0.000
 RMSDP=5.80D-08 MaxDP=2.24D-06 DE=-7.39D-10 OVMax= 6.44D-06

 Cycle  14  Pass 1  IDiag  1:
 RMSU=  2.91D-08    CP:  1.00D+00  1.10D+00  2.54D+00  1.57D+00  1.10D+00
                    CP:  1.29D+00
 E= -669.535203046500     Delta-E=       -0.000000000134 Rises=F Damp=F
 DIIS: error= 1.90D-07 at cycle   7 NSaved=   7.
 NSaved= 7 IEnMin= 7 EnMin= -669.535203046500     IErMin= 7 ErrMin= 1.90D-07
 ErrMax= 1.90D-07  0.00D+00 EMaxC= 1.00D-01 BMatC= 8.42D-12 BMatP= 4.34D-11
 IDIUse=1 WtCom= 1.00D+00 WtEn= 0.00D+00
 Coeff-Com: -0.253D-02 0.317D-01 0.123D-01-0.119D+00-0.116D+00 0.295D+00
 Coeff-Com:  0.898D+00
 Coeff:     -0.253D-02 0.317D-01 0.123D-01-0.119D+00-0.116D+00 0.295D+00
 Coeff:      0.898D+00
 Gap=     0.414 Goal=   None    Shift=    0.000
 RMSDP=1.78D-08 MaxDP=7.97D-07 DE=-1.34D-10 OVMax= 1.77D-06

 Cycle  15  Pass 1  IDiag  1:
 RMSU=  1.01D-08    CP:  1.00D+00  1.10D+00  2.54D+00  1.57D+00  1.12D+00
                    CP:  1.43D+00  1.14D+00
 E= -669.535203046535     Delta-E=       -0.000000000035 Rises=F Damp=F
 DIIS: error= 7.19D-08 at cycle   8 NSaved=   8.
 NSaved= 8 IEnMin= 8 EnMin= -669.535203046535     IErMin= 8 ErrMin= 7.19D-08
 ErrMax= 7.19D-08  0.00D+00 EMaxC= 1.00D-01 BMatC= 1.16D-12 BMatP= 8.42D-12
 IDIUse=1 WtCom= 1.00D+00 WtEn= 0.00D+00
 Coeff-Com:  0.630D-04-0.486D-02 0.918D-04 0.176D-01-0.158D-01-0.109D+00
 Coeff-Com:  0.984D-01 0.101D+01
 Coeff:      0.630D-04-0.486D-02 0.918D-04 0.176D-01-0.158D-01-0.109D+00
 Coeff:      0.984D-01 0.101D+01
 Gap=     0.414 Goal=   None    Shift=    0.000
 RMSDP=6.81D-09 MaxDP=3.17D-07 DE=-3.50D-11 OVMax= 6.23D-07

 SCF Done:  E(RHF) =  -669.535203047     A.U. after   15 cycles
            NFock= 15  Conv=0.68D-08     -V/T= 2.0024
 KE= 6.679643130102D+02 PE=-3.404681203102D+03 EE= 1.146180173346D+03
 Leave Link  502 at Thu May  6 14:19:23 2021, MaxMem=   524288000 cpu:              62.5 elap:              32.6
 (Enter /opt/gaussian/g16_legacy/l801.exe)
 ExpMin= 1.61D-01 ExpMax= 5.48D+03 ExpMxC= 8.25D+02 IAcc=3 IRadAn=         5 AccDes= 0.00D+00
 HarFok:  IExCor=  205 AccDes= 0.00D+00 IRadAn=         5 IDoV=-2 UseB2=F ITyADJ=14
 ICtDFT= 12500011 ScaDFX=  1.000000  1.000000  1.000000  1.000000
 Largest valence mixing into a core orbital is  1.96D-04
 Largest core mixing into a valence orbital is  4.00D-05
 Range of M.O.s used for correlation:    16   263
 NBasis=   263 NAE=    57 NBE=    57 NFC=    15 NFV=     0
 NROrb=    248 NOA=    42 NOB=    42 NVA=   206 NVB=   206
 Leave Link  801 at Thu May  6 14:19:24 2021, MaxMem=   524288000 cpu:               1.3 elap:               0.8
 (Enter /opt/gaussian/g16_legacy/l906.exe)
 FulOut=F Deriv=F AODrv=F NAtomX=    34
   MMem=         113  MDisk=          42 MDiskD=          42
  W3Min=     2275476 MinDsk=     2420380 NBas6D=         263
 NBas2D=       35121    NTT=       34716    LW2=     2000000
    MDV=   523930032 MDiskM=       27562 NBas2p=       25395
 Fully direct method using O(OVN) memory.
 IMap=   1   2   3   4   5   6   7   8   9  10  11  12  13  14  15  16  17  18  19  20
 IMap=  21  22  23  24  25  26  27  28  29  30  31  32  33  34  35  36  37  38  39  40
 IMap=  41  42
 JobTyp=1 Pass  1:  I=   1 to  42 NPSUse=  2 ParTrn=T ParDer=T DoDerP=F.
 Spin components of T(2) and E(2):
     alpha-alpha T2 =       0.9503802054D-01 E2=     -0.2721594851D+00
     alpha-beta  T2 =       0.5262298429D+00 E2=     -0.1548188791D+01
     beta-beta   T2 =       0.9503802054D-01 E2=     -0.2721594851D+00
 The integrals were generated   1 times.
 ANorm=    0.1310078579D+01
 E2 =    -0.2092507761D+01 EUMP2 =    -0.67162771080776D+03
 Leave Link  906 at Thu May  6 14:20:32 2021, MaxMem=   524288000 cpu:             134.9 elap:              67.8
 (Enter /opt/gaussian/g16_legacy/l601.exe)
 Copying SCF densities to generalized density rwf, IOpCl= 0 IROHF=0.

 **********************************************************************

            Population analysis using the SCF density.

 **********************************************************************

 Orbital symmetries:
       Occupied  (A) (A) (A) (A) (A) (A) (A) (A) (A) (A) (A) (A)
                 (A) (A) (A) (A) (A) (A) (A) (A) (A) (A) (A) (A)
                 (A) (A) (A) (A) (A) (A) (A) (A) (A) (A) (A) (A)
                 (A) (A) (A) (A) (A) (A) (A) (A) (A) (A) (A) (A)
                 (A) (A) (A) (A) (A) (A) (A) (A) (A)
       Virtual   (A) (A) (A) (A) (A) (A) (A) (A) (A) (A) (A) (A)
                 (A) (A) (A) (A) (A) (A) (A) (A) (A) (A) (A) (A)
                 (A) (A) (A) (A) (A) (A) (A) (A) (A) (A) (A) (A)
                 (A) (A) (A) (A) (A) (A) (A) (A) (A) (A) (A) (A)
                 (A) (A) (A) (A) (A) (A) (A) (A) (A) (A) (A) (A)
                 (A) (A) (A) (A) (A) (A) (A) (A) (A) (A) (A) (A)
                 (A) (A) (A) (A) (A) (A) (A) (A) (A) (A) (A) (A)
                 (A) (A) (A) (A) (A) (A) (A) (A) (A) (A) (A) (A)
                 (A) (A) (A) (A) (A) (A) (A) (A) (A) (A) (A) (A)
                 (A) (A) (A) (A) (A) (A) (A) (A) (A) (A) (A) (A)
                 (A) (A) (A) (A) (A) (A) (A) (A) (A) (A) (A) (A)
                 (A) (A) (A) (A) (A) (A) (A) (A) (A) (A) (A) (A)
                 (A) (A) (A) (A) (A) (A) (A) (A) (A) (A) (A) (A)
                 (A) (A) (A) (A) (A) (A) (A) (A) (A) (A) (A) (A)
                 (A) (A) (A) (A) (A) (A) (A) (A) (A) (A) (A) (A)
                 (A) (A) (A) (A) (A) (A) (A) (A) (A) (A) (A) (A)
                 (A) (A) (A) (A) (A) (A) (A) (A) (A) (A) (A) (A)
                 (A) (A)
 The electronic state is 1-A.
 Alpha  occ. eigenvalues --  -20.60761 -20.60756 -15.85814 -11.31184 -11.27754
 Alpha  occ. eigenvalues --  -11.27749 -11.27496 -11.26770 -11.26720 -11.22537
 Alpha  occ. eigenvalues --  -11.22498 -11.22432 -11.22351 -11.21902 -11.21755
 Alpha  occ. eigenvalues --   -1.59836  -1.39390  -1.19355  -1.09419  -1.08748
 Alpha  occ. eigenvalues --   -1.04759  -1.04397  -0.96848  -0.95585  -0.87852
 Alpha  occ. eigenvalues --   -0.86162  -0.82418  -0.80456  -0.79226  -0.77470
 Alpha  occ. eigenvalues --   -0.72033  -0.71159  -0.70470  -0.66298  -0.65008
 Alpha  occ. eigenvalues --   -0.64611  -0.62098  -0.61780  -0.60199  -0.58445
 Alpha  occ. eigenvalues --   -0.56170  -0.55246  -0.53490  -0.53258  -0.53084
 Alpha  occ. eigenvalues --   -0.52818  -0.50801  -0.48794  -0.48788  -0.48762
 Alpha  occ. eigenvalues --   -0.47513  -0.46730  -0.46704  -0.44794  -0.44680
 Alpha  occ. eigenvalues --   -0.37336  -0.36358
 Alpha virt. eigenvalues --    0.05064   0.11240   0.16516   0.18148   0.22290
 Alpha virt. eigenvalues --    0.23444   0.25157   0.25750   0.26585   0.28228
 Alpha virt. eigenvalues --    0.29337   0.30696   0.31080   0.31735   0.32254
 Alpha virt. eigenvalues --    0.32880   0.33234   0.33727   0.34346   0.34656
 Alpha virt. eigenvalues --    0.35092   0.35561   0.37106   0.37791   0.38790
 Alpha virt. eigenvalues --    0.42174   0.44099   0.44465   0.44515   0.45217
 Alpha virt. eigenvalues --    0.46979   0.47252   0.49498   0.52218   0.57368
 Alpha virt. eigenvalues --    0.67276   0.68399   0.68539   0.69222   0.70397
 Alpha virt. eigenvalues --    0.70826   0.71799   0.74194   0.75764   0.77405
 Alpha virt. eigenvalues --    0.78065   0.78866   0.79036   0.79623   0.80159
 Alpha virt. eigenvalues --    0.80755   0.81404   0.82782   0.84253   0.85740
 Alpha virt. eigenvalues --    0.86781   0.87145   0.88024   0.88495   0.93745
 Alpha virt. eigenvalues --    0.95025   0.95411   0.96763   0.97649   1.00471
 Alpha virt. eigenvalues --    1.01056   1.01902   1.03910   1.05038   1.06446
 Alpha virt. eigenvalues --    1.06833   1.07874   1.08207   1.10525   1.10554
 Alpha virt. eigenvalues --    1.12728   1.15295   1.15835   1.16133   1.16724
 Alpha virt. eigenvalues --    1.17163   1.17906   1.19076   1.19369   1.20569
 Alpha virt. eigenvalues --    1.20744   1.21040   1.21134   1.22085   1.22723
 Alpha virt. eigenvalues --    1.23564   1.23614   1.24736   1.26061   1.26299
 Alpha virt. eigenvalues --    1.28323   1.29380   1.30975   1.32256   1.34200
 Alpha virt. eigenvalues --    1.37056   1.40522   1.40757   1.46796   1.47082
 Alpha virt. eigenvalues --    1.52558   1.53471   1.54816   1.60461   1.65116
 Alpha virt. eigenvalues --    1.65416   1.66385   1.66802   1.67165   1.68168
 Alpha virt. eigenvalues --    1.70818   1.71988   1.72589   1.73293   1.73598
 Alpha virt. eigenvalues --    1.75532   1.78926   1.80300   1.92016   1.96972
 Alpha virt. eigenvalues --    1.99322   1.99949   2.04328   2.04704   2.04834
 Alpha virt. eigenvalues --    2.10070   2.12201   2.12492   2.13317   2.14443
 Alpha virt. eigenvalues --    2.17288   2.21515   2.21666   2.21702   2.24693
 Alpha virt. eigenvalues --    2.24814   2.25764   2.26880   2.27284   2.31875
 Alpha virt. eigenvalues --    2.33007   2.34402   2.35785   2.36181   2.37701
 Alpha virt. eigenvalues --    2.38737   2.42193   2.42965   2.43329   2.44638
 Alpha virt. eigenvalues --    2.45735   2.46877   2.55853   2.56077   2.58108
 Alpha virt. eigenvalues --    2.58589   2.59441   2.59842   2.66038   2.66904
 Alpha virt. eigenvalues --    2.67092   2.70338   2.76470   2.76978   2.79329
 Alpha virt. eigenvalues --    2.81597   2.83505   2.90471   2.91956   2.92113
 Alpha virt. eigenvalues --    2.92794   2.94005   2.97698   2.99996   3.04725
 Alpha virt. eigenvalues --    3.05016   3.07454   3.11008   3.12958   3.17657
 Alpha virt. eigenvalues --    3.23676   3.24580   3.27755   3.43119   3.52940
 Alpha virt. eigenvalues --    3.77010   4.13073   4.28737   4.37858   4.48385
 Alpha virt. eigenvalues --    4.51080   4.52940   4.54848   4.61568   4.71110
 Alpha virt. eigenvalues --    4.72441   4.76803   4.79112   4.87190   4.99353
 Alpha virt. eigenvalues --    5.09020
          Condensed to atoms (all electrons):
               1          2          3          4          5          6
     1  C    4.879166   0.541760  -0.045250  -0.028928  -0.044812   0.541677
     2  C    0.541760   4.932570   0.522448  -0.040109  -0.030397  -0.043137
     3  C   -0.045250   0.522448   4.919758   0.548397  -0.052898  -0.030545
     4  C   -0.028928  -0.040109   0.548397   4.821594   0.547673  -0.039849
     5  C   -0.044812  -0.030397  -0.052898   0.547673   4.923232   0.520744
     6  C    0.541677  -0.043137  -0.030545  -0.039849   0.520744   4.949427
     7  H    0.381042  -0.027802   0.002168   0.000220   0.002164  -0.028068
     8  H   -0.027781   0.382666  -0.027393   0.001568   0.000193   0.002359
     9  H    0.001939  -0.024106   0.368562  -0.019667   0.002574  -0.000069
    10  H    0.001913  -0.000058   0.002567  -0.019326   0.368105  -0.024116
    11  H   -0.027020   0.002237   0.000209   0.001436  -0.026326   0.378508
    12  N    0.000018   0.001496  -0.044599   0.243931  -0.044384   0.001469
    13  O   -0.000003  -0.000029   0.003717  -0.088078   0.004106   0.000773
    14  O   -0.000003   0.000773   0.004047  -0.087988   0.003744  -0.000030
    15  C   -0.000001  -0.000000   0.000000   0.000001  -0.000029   0.000006
    16  C    0.000003  -0.000000  -0.000000   0.000000   0.000008  -0.000287
    17  C    0.000000  -0.000000   0.000000   0.000000  -0.000008   0.000008
    18  H    0.000012  -0.000001   0.000000   0.000003   0.000117   0.000430
    19  H    0.000000   0.000000  -0.000000  -0.000000   0.000000  -0.000003
    20  H    0.000004   0.000000  -0.000000   0.000000   0.000012  -0.000035
    21  H   -0.000000  -0.000000   0.000000   0.000000   0.000000   0.000004
    22  H   -0.000000   0.000000  -0.000000  -0.000000   0.000000  -0.000000
    23  H    0.000000  -0.000000   0.000000   0.000000  -0.000000   0.000001
    24  H   -0.000000   0.000000  -0.000000  -0.000000   0.000000  -0.000000
    25  C   -0.000002   0.000001  -0.000000  -0.000000   0.000017  -0.000480
    26  C   -0.000007   0.000000   0.000000   0.000000  -0.000004  -0.000019
    27  C   -0.000016   0.000000   0.000000  -0.000000   0.000000  -0.000003
    28  H    0.000090   0.000003   0.000000  -0.000001   0.000020  -0.000348
    29  H   -0.000000  -0.000000   0.000000   0.000000  -0.000000   0.000008
    30  H    0.000027  -0.000000  -0.000000  -0.000000   0.000005   0.000200
    31  H    0.000000   0.000000   0.000000  -0.000000   0.000000  -0.000000
    32  H    0.000000  -0.000000  -0.000000   0.000000  -0.000000   0.000000
    33  H    0.000018   0.000000   0.000000  -0.000000   0.000000   0.000006
    34  H    0.000000  -0.000000  -0.000000   0.000000  -0.000000  -0.000000
               7          8          9         10         11         12
     1  C    0.381042  -0.027781   0.001939   0.001913  -0.027020   0.000018
     2  C   -0.027802   0.382666  -0.024106  -0.000058   0.002237   0.001496
     3  C    0.002168  -0.027393   0.368562   0.002567   0.000209  -0.044599
     4  C    0.000220   0.001568  -0.019667  -0.019326   0.001436   0.243931
     5  C    0.002164   0.000193   0.002574   0.368105  -0.026326  -0.044384
     6  C   -0.028068   0.002359  -0.000069  -0.024116   0.378508   0.001469
     7  H    0.446638  -0.001194  -0.000071  -0.000071  -0.001106   0.000002
     8  H   -0.001194   0.447360  -0.001114   0.000007  -0.000092  -0.000049
     9  H   -0.000071  -0.001114   0.392648  -0.000076   0.000007  -0.005353
    10  H   -0.000071   0.000007  -0.000076   0.392497  -0.000887  -0.005364
    11  H   -0.001106  -0.000092   0.000007  -0.000887   0.432452  -0.000050
    12  N    0.000002  -0.000049  -0.005353  -0.005364  -0.000050   5.735000
    13  O    0.000000   0.000000   0.000048   0.009137  -0.000002   0.314926
    14  O    0.000000  -0.000001   0.009042   0.000049   0.000000   0.314950
    15  C   -0.000002  -0.000000   0.000000   0.000012  -0.000518  -0.000000
    16  C    0.000000   0.000000  -0.000000  -0.000005   0.000199  -0.000000
    17  C    0.000000  -0.000000   0.000000   0.000017  -0.000023  -0.000000
    18  H    0.000000  -0.000000   0.000000   0.000098  -0.000232  -0.000000
    19  H    0.000000   0.000000  -0.000000  -0.000000   0.000028   0.000000
    20  H   -0.000001  -0.000000   0.000000  -0.000004   0.001206  -0.000000
    21  H    0.000000  -0.000000   0.000000   0.000000  -0.000010  -0.000000
    22  H    0.000000   0.000000  -0.000000  -0.000000   0.000001   0.000000
    23  H    0.000000  -0.000000  -0.000000   0.000091  -0.000004  -0.000000
    24  H   -0.000000   0.000000  -0.000000  -0.000001  -0.000000   0.000000
    25  C    0.000027   0.000000   0.000000  -0.000000  -0.000240   0.000000
    26  C   -0.000013   0.000000  -0.000000  -0.000000  -0.000009  -0.000000
    27  C    0.000016  -0.000000   0.000000   0.000000  -0.000009  -0.000000
    28  H    0.000252   0.000000  -0.000000  -0.000000   0.000835   0.000000
    29  H   -0.000001  -0.000000   0.000000   0.000000   0.000012  -0.000000
    30  H   -0.000003  -0.000000   0.000000  -0.000000   0.000031  -0.000000
    31  H    0.000000  -0.000000   0.000000   0.000000  -0.000001   0.000000
    32  H   -0.000000   0.000000  -0.000000  -0.000000   0.000000   0.000000
    33  H    0.000150  -0.000000  -0.000000   0.000000  -0.000018   0.000000
    34  H   -0.000001   0.000000  -0.000000  -0.000000   0.000000  -0.000000
              13         14         15         16         17         18
     1  C   -0.000003  -0.000003  -0.000001   0.000003   0.000000   0.000012
     2  C   -0.000029   0.000773  -0.000000  -0.000000  -0.000000  -0.000001
     3  C    0.003717   0.004047   0.000000  -0.000000   0.000000   0.000000
     4  C   -0.088078  -0.087988   0.000001   0.000000   0.000000   0.000003
     5  C    0.004106   0.003744  -0.000029   0.000008  -0.000008   0.000117
     6  C    0.000773  -0.000030   0.000006  -0.000287   0.000008   0.000430
     7  H    0.000000   0.000000  -0.000002   0.000000   0.000000   0.000000
     8  H    0.000000  -0.000001  -0.000000   0.000000  -0.000000  -0.000000
     9  H    0.000048   0.009042   0.000000  -0.000000   0.000000   0.000000
    10  H    0.009137   0.000049   0.000012  -0.000005   0.000017   0.000098
    11  H   -0.000002   0.000000  -0.000518   0.000199  -0.000023  -0.000232
    12  N    0.314926   0.314950  -0.000000  -0.000000  -0.000000  -0.000000
    13  O    8.303441  -0.087624   0.000000  -0.000000   0.000000  -0.000000
    14  O   -0.087624   8.303500  -0.000000  -0.000000   0.000000  -0.000000
    15  C    0.000000  -0.000000   5.096451   0.349381  -0.057447   0.395741
    16  C   -0.000000  -0.000000   0.349381   5.068569   0.340078  -0.043138
    17  C    0.000000   0.000000  -0.057447   0.340078   5.096402  -0.002708
    18  H   -0.000000  -0.000000   0.395741  -0.043138  -0.002708   0.571096
    19  H    0.000000   0.000000   0.397226  -0.040657  -0.002806  -0.030622
    20  H    0.000000  -0.000000  -0.045233   0.398215  -0.040375  -0.003204
    21  H   -0.000000   0.000000  -0.043045   0.399449  -0.039233   0.004593
    22  H    0.000000  -0.000000  -0.003859  -0.038756   0.391966   0.000138
    23  H   -0.000000  -0.000000  -0.003870  -0.039269   0.391236   0.002636
    24  H    0.000000   0.000000   0.004392  -0.035726   0.394552  -0.000060
    25  C   -0.000000  -0.000000   0.353511  -0.052232   0.004096  -0.043023
    26  C   -0.000000  -0.000000  -0.051895   0.003998  -0.000085  -0.003147
    27  C   -0.000000  -0.000000   0.004085  -0.000086   0.000001  -0.000055
    28  H    0.000000   0.000000  -0.043683  -0.003299  -0.000051  -0.003021
    29  H    0.000000   0.000000  -0.040669  -0.003308  -0.000050   0.004479
    30  H    0.000000   0.000000  -0.003237  -0.000063  -0.000000   0.002398
    31  H   -0.000000   0.000000  -0.003274  -0.000063  -0.000001   0.000228
    32  H   -0.000000  -0.000000  -0.000071  -0.000000  -0.000000  -0.000001
    33  H   -0.000000   0.000000  -0.000071  -0.000001  -0.000000   0.000014
    34  H    0.000000  -0.000000  -0.000086   0.000001  -0.000000   0.000001
              19         20         21         22         23         24
     1  C    0.000000   0.000004  -0.000000  -0.000000   0.000000  -0.000000
     2  C    0.000000   0.000000  -0.000000   0.000000  -0.000000   0.000000
     3  C   -0.000000  -0.000000   0.000000  -0.000000   0.000000  -0.000000
     4  C   -0.000000   0.000000   0.000000  -0.000000   0.000000  -0.000000
     5  C    0.000000   0.000012   0.000000   0.000000  -0.000000   0.000000
     6  C   -0.000003  -0.000035   0.000004  -0.000000   0.000001  -0.000000
     7  H    0.000000  -0.000001   0.000000   0.000000   0.000000  -0.000000
     8  H    0.000000  -0.000000  -0.000000   0.000000  -0.000000   0.000000
     9  H   -0.000000   0.000000   0.000000  -0.000000  -0.000000  -0.000000
    10  H   -0.000000  -0.000004   0.000000  -0.000000   0.000091  -0.000001
    11  H    0.000028   0.001206  -0.000010   0.000001  -0.000004  -0.000000
    12  N    0.000000  -0.000000  -0.000000   0.000000  -0.000000   0.000000
    13  O    0.000000   0.000000  -0.000000   0.000000  -0.000000   0.000000
    14  O    0.000000  -0.000000   0.000000  -0.000000  -0.000000   0.000000
    15  C    0.397226  -0.045233  -0.043045  -0.003859  -0.003870   0.004392
    16  C   -0.040657   0.398215   0.399449  -0.038756  -0.039269  -0.035726
    17  C   -0.002806  -0.040375  -0.039233   0.391966   0.391236   0.394552
    18  H   -0.030622  -0.003204   0.004593   0.000138   0.002636  -0.000060
    19  H    0.555119   0.004514  -0.002917   0.002590   0.000158  -0.000056
    20  H    0.004514   0.572686  -0.031387   0.004238  -0.002846  -0.002545
    21  H   -0.002917  -0.031387   0.557962  -0.002840   0.004180  -0.002504
    22  H    0.002590   0.004238  -0.002840   0.543490  -0.028749  -0.026992
    23  H    0.000158  -0.002846   0.004180  -0.028749   0.548917  -0.027270
    24  H   -0.000056  -0.002545  -0.002504  -0.026992  -0.027270   0.532115
    25  C   -0.040646  -0.003192  -0.003318  -0.000068  -0.000070  -0.000088
    26  C   -0.003230  -0.000058  -0.000064  -0.000000  -0.000001   0.000001
    27  C   -0.000049  -0.000000  -0.000000  -0.000000  -0.000000  -0.000000
    28  H    0.004470   0.002003   0.000264  -0.000002   0.000014   0.000001
    29  H   -0.002742   0.000223   0.002436   0.000013  -0.000001   0.000001
    30  H    0.000238   0.000015  -0.000003   0.000000  -0.000002   0.000000
    31  H    0.002367  -0.000003   0.000016  -0.000002   0.000000   0.000000
    32  H    0.000013   0.000000  -0.000002   0.000000  -0.000000  -0.000000
    33  H   -0.000001  -0.000002   0.000000  -0.000000   0.000000  -0.000000
    34  H    0.000001   0.000000   0.000000  -0.000000  -0.000000   0.000000
              25         26         27         28         29         30
     1  C   -0.000002  -0.000007  -0.000016   0.000090  -0.000000   0.000027
     2  C    0.000001   0.000000   0.000000   0.000003  -0.000000  -0.000000
     3  C   -0.000000   0.000000   0.000000   0.000000   0.000000  -0.000000
     4  C   -0.000000   0.000000  -0.000000  -0.000001   0.000000  -0.000000
     5  C    0.000017  -0.000004   0.000000   0.000020  -0.000000   0.000005
     6  C   -0.000480  -0.000019  -0.000003  -0.000348   0.000008   0.000200
     7  H    0.000027  -0.000013   0.000016   0.000252  -0.000001  -0.000003
     8  H    0.000000   0.000000  -0.000000   0.000000  -0.000000  -0.000000
     9  H    0.000000  -0.000000   0.000000  -0.000000   0.000000   0.000000
    10  H   -0.000000  -0.000000   0.000000  -0.000000   0.000000  -0.000000
    11  H   -0.000240  -0.000009  -0.000009   0.000835   0.000012   0.000031
    12  N    0.000000  -0.000000  -0.000000   0.000000  -0.000000  -0.000000
    13  O   -0.000000  -0.000000  -0.000000   0.000000   0.000000   0.000000
    14  O   -0.000000  -0.000000  -0.000000   0.000000   0.000000   0.000000
    15  C    0.353511  -0.051895   0.004085  -0.043683  -0.040669  -0.003237
    16  C   -0.052232   0.003998  -0.000086  -0.003299  -0.003308  -0.000063
    17  C    0.004096  -0.000085   0.000001  -0.000051  -0.000050  -0.000000
    18  H   -0.043023  -0.003147  -0.000055  -0.003021   0.004479   0.002398
    19  H   -0.040646  -0.003230  -0.000049   0.004470  -0.002742   0.000238
    20  H   -0.003192  -0.000058  -0.000000   0.002003   0.000223   0.000015
    21  H   -0.003318  -0.000064  -0.000000   0.000264   0.002436  -0.000003
    22  H   -0.000068  -0.000000  -0.000000  -0.000002   0.000013   0.000000
    23  H   -0.000070  -0.000001  -0.000000   0.000014  -0.000001  -0.000002
    24  H   -0.000088   0.000001  -0.000000   0.000001   0.000001   0.000000
    25  C    5.091392   0.351186  -0.057544   0.393909   0.396812  -0.043699
    26  C    0.351186   5.063739   0.340119  -0.043339  -0.041107   0.399177
    27  C   -0.057544   0.340119   5.096671  -0.002766  -0.002842  -0.039844
    28  H    0.393909  -0.043339  -0.002766   0.584864  -0.031865  -0.003054
    29  H    0.396812  -0.041107  -0.002842  -0.031865   0.559215   0.004501
    30  H   -0.043699   0.399177  -0.039844  -0.003054   0.004501   0.561009
    31  H   -0.043255   0.399717  -0.039472   0.004669  -0.002882  -0.030944
    32  H   -0.003810  -0.038790   0.391604   0.000159   0.002620   0.004187
    33  H   -0.004035  -0.039438   0.390225   0.002779   0.000177  -0.002867
    34  H    0.004384  -0.035532   0.394786  -0.000065  -0.000060  -0.002492
              31         32         33         34
     1  C    0.000000   0.000000   0.000018   0.000000
     2  C    0.000000  -0.000000   0.000000  -0.000000
     3  C    0.000000  -0.000000   0.000000  -0.000000
     4  C   -0.000000   0.000000  -0.000000   0.000000
     5  C    0.000000  -0.000000   0.000000  -0.000000
     6  C   -0.000000   0.000000   0.000006  -0.000000
     7  H    0.000000  -0.000000   0.000150  -0.000001
     8  H   -0.000000   0.000000  -0.000000   0.000000
     9  H    0.000000  -0.000000  -0.000000  -0.000000
    10  H    0.000000  -0.000000   0.000000  -0.000000
    11  H   -0.000001   0.000000  -0.000018   0.000000
    12  N    0.000000   0.000000   0.000000  -0.000000
    13  O   -0.000000  -0.000000  -0.000000   0.000000
    14  O    0.000000  -0.000000   0.000000  -0.000000
    15  C   -0.003274  -0.000071  -0.000071  -0.000086
    16  C   -0.000063  -0.000000  -0.000001   0.000001
    17  C   -0.000001  -0.000000  -0.000000  -0.000000
    18  H    0.000228  -0.000001   0.000014   0.000001
    19  H    0.002367   0.000013  -0.000001   0.000001
    20  H   -0.000003   0.000000  -0.000002   0.000000
    21  H    0.000016  -0.000002   0.000000   0.000000
    22  H   -0.000002   0.000000  -0.000000  -0.000000
    23  H    0.000000  -0.000000   0.000000  -0.000000
    24  H    0.000000  -0.000000  -0.000000   0.000000
    25  C   -0.043255  -0.003810  -0.004035   0.004384
    26  C    0.399717  -0.038790  -0.039438  -0.035532
    27  C   -0.039472   0.391604   0.390225   0.394786
    28  H    0.004669   0.000159   0.002779  -0.000065
    29  H   -0.002882   0.002620   0.000177  -0.000060
    30  H   -0.030944   0.004187  -0.002867  -0.002492
    31  H    0.557654  -0.002868   0.004223  -0.002480
    32  H   -0.002868   0.546035  -0.029452  -0.027045
    33  H    0.004223  -0.029452   0.556672  -0.027501
    34  H   -0.002480  -0.027045  -0.027501   0.531829
 Mulliken charges:
               1
     1  C   -0.173846
     2  C   -0.218316
     3  C   -0.171188
     4  C    0.159124
     5  C   -0.173859
     6  C   -0.228633
     7  H    0.225653
     8  H    0.223471
     9  H    0.275636
    10  H    0.275416
    11  H    0.239387
    12  N    0.488005
    13  O   -0.460413
    14  O   -0.460460
    15  C   -0.303816
    16  C   -0.303011
    17  C   -0.475567
    18  H    0.147227
    19  H    0.157007
    20  H    0.145769
    21  H    0.156419
    22  H    0.158834
    23  H    0.154848
    24  H    0.164179
    25  C   -0.299633
    26  C   -0.301202
    27  C   -0.474819
    28  H    0.137164
    29  H    0.155032
    30  H    0.154420
    31  H    0.156371
    32  H    0.157422
    33  H    0.149120
    34  H    0.164258
 Sum of Mulliken charges =  -0.00000
 Mulliken charges with hydrogens summed into heavy atoms:
               1
     1  C    0.051806
     2  C    0.005154
     3  C    0.104448
     4  C    0.159124
     5  C    0.101557
     6  C    0.010754
    12  N    0.488005
    13  O   -0.460413
    14  O   -0.460460
    15  C    0.000418
    16  C   -0.000823
    17  C    0.002294
    25  C   -0.007437
    26  C    0.009589
    27  C   -0.004019
 Electronic spatial extent (au):  <R**2>=           5982.8306
 Charge=             -0.0000 electrons
 Dipole moment (field-independent basis, Debye):
    X=              3.9247    Y=             -3.0196    Z=             -1.9151  Tot=              5.3093
 Quadrupole moment (field-independent basis, Debye-Ang):
   XX=           -111.6377   YY=            -92.5702   ZZ=            -95.4092
   XY=             11.9957   XZ=              6.5650   YZ=              0.5610
 Traceless Quadrupole moment (field-independent basis, Debye-Ang):
   XX=            -11.7654   YY=              7.3022   ZZ=              4.4632
   XY=             11.9957   XZ=              6.5650   YZ=              0.5610
 Octapole moment (field-independent basis, Debye-Ang**2):
  XXX=             94.6007  YYY=            -14.2252  ZZZ=             10.7961  XYY=            -11.1442
  XXY=            -39.5384  XXZ=            -26.6461  XZZ=             -5.3997  YZZ=             -0.8272
  YYZ=            -12.4176  XYZ=              4.3553
 Hexadecapole moment (field-independent basis, Debye-Ang**3):
 XXXX=          -6296.0561 YYYY=          -1866.2507 ZZZZ=           -431.1884 XXXY=            174.9761
 XXXZ=            128.3794 YYYX=             43.0267 YYYZ=             23.2389 ZZZX=            -35.3882
 ZZZY=              4.1674 XXYY=          -1286.0578 XXZZ=          -1046.6137 YYZZ=           -371.8456
 XXYZ=            -23.3019 YYXZ=             26.5138 ZZXY=             -5.6371
 N-N= 9.210015136996D+02 E-N=-3.404681199097D+03  KE= 6.679643130102D+02
 Leave Link  601 at Thu May  6 14:20:33 2021, MaxMem=   524288000 cpu:               0.4 elap:               0.3
 (Enter /opt/gaussian/g16_legacy/l9999.exe)
 1\1\GINC-TRUENO95\SP\RMP2-FC\6-31G(d)\C12H19N1O2\JRAMOS\06-May-2021\0\
 \#p 6-31g* mp2\\Input file generated by CHIRIPA (05-May-2021 14:55:24)
 \\0,1\C,0,1.914143,0.,0.\C,0,1.214143,1.211,0.\C,0,-0.183857,1.223,0.\
 C,0,-0.852857,0.,0.\C,0,-0.183857,-1.223,0.\C,0,1.214143,-1.211,0.\H,0
 ,3.000143,0.,0.\H,0,1.755143,2.153,0.\H,0,-0.750857,2.146,0.\H,0,-0.75
 0857,-2.146,0.\H,0,1.755143,-2.153,0.\N,0,-2.332857,0.,0.\O,0,-2.89885
 7,-1.091,0.\O,0,-2.898857,1.091,0.\C,0,2.659016,-4.965658,-1.149704\C,
 0,2.500699,-5.438519,0.295745\C,0,1.278247,-6.335272,0.493832\H,0,1.75
 2412,-4.424397,-1.453104\H,0,2.735192,-5.841775,-1.808499\H,0,2.426233
 ,-4.561763,0.951771\H,0,3.407863,-5.978551,0.595802\H,0,1.34867,-7.227
 415,-0.136819\H,0,0.361462,-5.802578,0.221173\H,0,1.184234,-6.661806,1
 .534215\C,0,3.876657,-4.068262,-1.363616\C,0,4.034973,-3.595401,-2.809
 066\C,0,5.257426,-2.698647,-3.007153\H,0,3.80048,-3.192144,-0.704821\H
 ,0,4.783261,-4.609522,-1.060216\H,0,3.127809,-3.055368,-3.109123\H,0,4
 .109439,-4.472156,-3.465092\H,0,6.17421,-3.231342,-2.734493\H,0,5.1870
 03,-1.806504,-2.376501\H,0,5.351439,-2.372113,-4.047536\\Version=EM64L
 -G16RevA.03\State=1-A\HF=-669.535203\MP2=-671.6277108\RMSD=6.815e-09\P
 G=C01 [X(C12H19N1O2)]\\@


 SACRED COWS MAKE GREAT HAMBURGERS -- ROBERT REISNER
 Job cpu time:       0 days  0 hours  3 minutes 29.9 seconds.
 Elapsed time:       0 days  0 hours  1 minutes 47.6 seconds.
 File lengths (MBytes):  RWF=     43 Int=      0 D2E=      0 Chk=      6 Scr=      1
 Normal termination of Gaussian 16 at Thu May  6 14:20:33 2021.
