 Entering Gaussian System, Link 0=/opt/gaussian/g16_legacy/g16
 Input=gaussian_00312_1_2.com
 Output=gaussian_00312_1_2.log
 Initial command:
 /opt/gaussian/g16_legacy/l1.exe "/scratch-local/jramos/2592773/Gau-16674.inp" -scrdir="/scratch-local/jramos/2592773/"
 Entering Link 1 = /opt/gaussian/g16_legacy/l1.exe PID=     16676.
  
 Copyright (c) 1988,1990,1992,1993,1995,1998,2003,2009,2016,
            Gaussian, Inc.  All Rights Reserved.
  
 This is part of the Gaussian(R) 16 program.  It is based on
 the Gaussian(R) 09 system (copyright 2009, Gaussian, Inc.),
 the Gaussian(R) 03 system (copyright 2003, Gaussian, Inc.),
 the Gaussian(R) 98 system (copyright 1998, Gaussian, Inc.),
 the Gaussian(R) 94 system (copyright 1995, Gaussian, Inc.),
 the Gaussian 92(TM) system (copyright 1992, Gaussian, Inc.),
 the Gaussian 90(TM) system (copyright 1990, Gaussian, Inc.),
 the Gaussian 88(TM) system (copyright 1988, Gaussian, Inc.),
 the Gaussian 86(TM) system (copyright 1986, Carnegie Mellon
 University), and the Gaussian 82(TM) system (copyright 1983,
 Carnegie Mellon University). Gaussian is a federally registered
 trademark of Gaussian, Inc.
  
 This software contains proprietary and confidential information,
 including trade secrets, belonging to Gaussian, Inc.
  
 This software is provided under written license and may be
 used, copied, transmitted, or stored only in accord with that
 written license.
  
 The following legend is applicable only to US Government
 contracts under FAR:
  
                    RESTRICTED RIGHTS LEGEND
  
 Use, reproduction and disclosure by the US Government is
 subject to restrictions as set forth in subparagraphs (a)
 and (c) of the Commercial Computer Software - Restricted
 Rights clause in FAR 52.227-19.
  
 Gaussian, Inc.
 340 Quinnipiac St., Bldg. 40, Wallingford CT 06492
  
  
 ---------------------------------------------------------------
 Warning -- This program may not be used in any manner that
 competes with the business of Gaussian, Inc. or will provide
 assistance to any competitor of Gaussian, Inc.  The licensee
 of this program is prohibited from giving any competitor of
 Gaussian, Inc. access to this program.  By using this program,
 the user acknowledges that Gaussian, Inc. is engaged in the
 business of creating and licensing software in the field of
 computational chemistry and represents and warrants to the
 licensee that it is not a competitor of Gaussian, Inc. and that
 it will not use this program in any manner prohibited above.
 ---------------------------------------------------------------
  

 Cite this work as:
 Gaussian 16, Revision A.03,
 M. J. Frisch, G. W. Trucks, H. B. Schlegel, G. E. Scuseria, 
 M. A. Robb, J. R. Cheeseman, G. Scalmani, V. Barone, 
 G. A. Petersson, H. Nakatsuji, X. Li, M. Caricato, A. V. Marenich, 
 J. Bloino, B. G. Janesko, R. Gomperts, B. Mennucci, H. P. Hratchian, 
 J. V. Ortiz, A. F. Izmaylov, J. L. Sonnenberg, D. Williams-Young, 
 F. Ding, F. Lipparini, F. Egidi, J. Goings, B. Peng, A. Petrone, 
 T. Henderson, D. Ranasinghe, V. G. Zakrzewski, J. Gao, N. Rega, 
 G. Zheng, W. Liang, M. Hada, M. Ehara, K. Toyota, R. Fukuda, 
 J. Hasegawa, M. Ishida, T. Nakajima, Y. Honda, O. Kitao, H. Nakai, 
 T. Vreven, K. Throssell, J. A. Montgomery, Jr., J. E. Peralta, 
 F. Ogliaro, M. J. Bearpark, J. J. Heyd, E. N. Brothers, K. N. Kudin, 
 V. N. Staroverov, T. A. Keith, R. Kobayashi, J. Normand, 
 K. Raghavachari, A. P. Rendell, J. C. Burant, S. S. Iyengar, 
 J. Tomasi, M. Cossi, J. M. Millam, M. Klene, C. Adamo, R. Cammi, 
 J. W. Ochterski, R. L. Martin, K. Morokuma, O. Farkas, 
 J. B. Foresman, and D. J. Fox, Gaussian, Inc., Wallingford CT, 2016.
 
 ******************************************
 Gaussian 16:  EM64L-G16RevA.03 25-Dec-2016
                 6-May-2021 
 ******************************************
 %chk=gaussian_00312_1_2.chk
 %nproc=2
 Will use up to    2 processors via shared memory.
 %mem=4000Mb
 -------------
 #p 6-31g* mp2
 -------------
 1/38=1,172=1/1;
 2/12=2,17=6,18=5,40=1/2;
 3/5=1,6=6,7=1,11=9,25=1,30=1/1,2,3;
 4//1;
 5/5=2,38=5/2;
 8/10=2/1;
 9/16=-3/6;
 6/7=2,8=2,9=2,10=2/1;
 99/5=1,9=1/99;
 Leave Link    1 at Thu May  6 04:03:48 2021, MaxMem=   524288000 cpu:               0.1 elap:               0.1
 (Enter /opt/gaussian/g16_legacy/l101.exe)
 ------------------------------------------------------
 Input file generated by CHIRIPA (05-May-2021 14:53:11)
 ------------------------------------------------------
 Symbolic Z-matrix:
 Charge =  0 Multiplicity = 1
 C                    -0.666    -0.374     0. 
 C                    -1.882     0.553     0. 
 C                    -3.207    -0.21      0. 
 H                    -0.713    -1.03     -0.88 
 H                    -0.713    -1.029     0.881 
 H                    -1.832     1.207    -0.88 
 H                    -1.832     1.207     0.88 
 H                    -3.283    -0.85      0.885 
 H                    -3.283    -0.85     -0.885 
 H                    -4.063     0.472     0. 
 C                     0.666     0.374     0. 
 C                     1.882    -0.553     0. 
 C                     3.207     0.21      0. 
 H                     0.713     1.029    -0.881 
 H                     0.713     1.03      0.88 
 H                     1.832    -1.207    -0.88 
 H                     1.832    -1.207     0.88 
 H                     3.283     0.85      0.885 
 H                     3.283     0.85     -0.885 
 H                     4.063    -0.472     0. 
 C                     1.3067   -6.06648  -2.4792 
 C                     0.79431  -6.1208   -1.17881 
 C                     1.42123  -5.42759  -0.13911 
 C                     2.56383  -4.68651  -0.43675 
 C                     3.09853  -4.61273  -1.72203 
 C                     2.45515  -5.31394  -2.74619 
 H                     0.8133   -6.60809  -3.28083 
 H                    -0.09743  -6.70443  -0.96853 
 H                     1.04591  -5.45229   0.87674 
 H                     3.98906  -4.02247  -1.90081 
 H                     2.85531  -5.26994  -3.75514 
 N                     3.23623  -3.9484    0.65571 
 O                     4.24151  -3.30267   0.36747 
 O                     2.74525  -4.02958   1.77954 
 
 ITRead=  0  0  0  0  0  0  0  0  0  0  0  0  0  0  0  0  0  0  0  0
 ITRead=  0  0  0  0  0  0  0  0  0  0  0  0  0  0
 MicOpt= -1 -1 -1 -1 -1 -1 -1 -1 -1 -1 -1 -1 -1 -1 -1 -1 -1 -1 -1 -1
 MicOpt= -1 -1 -1 -1 -1 -1 -1 -1 -1 -1 -1 -1 -1 -1
 NAtoms=     34 NQM=       34 NQMF=       0 NMMI=      0 NMMIF=      0
                NMic=       0 NMicF=      0.
                    Isotopes and Nuclear Properties:
 (Nuclear quadrupole moments (NQMom) in fm**2, nuclear magnetic moments (NMagM)
  in nuclear magnetons)

  Atom         1           2           3           4           5           6           7           8           9          10
 IAtWgt=          12          12          12           1           1           1           1           1           1           1
 AtmWgt=  12.0000000  12.0000000  12.0000000   1.0078250   1.0078250   1.0078250   1.0078250   1.0078250   1.0078250   1.0078250
 NucSpn=           0           0           0           1           1           1           1           1           1           1
 AtZEff=  -0.0000000  -0.0000000  -0.0000000  -0.0000000  -0.0000000  -0.0000000  -0.0000000  -0.0000000  -0.0000000  -0.0000000
 NQMom=    0.0000000   0.0000000   0.0000000   0.0000000   0.0000000   0.0000000   0.0000000   0.0000000   0.0000000   0.0000000
 NMagM=    0.0000000   0.0000000   0.0000000   2.7928460   2.7928460   2.7928460   2.7928460   2.7928460   2.7928460   2.7928460
 AtZNuc=   6.0000000   6.0000000   6.0000000   1.0000000   1.0000000   1.0000000   1.0000000   1.0000000   1.0000000   1.0000000

  Atom        11          12          13          14          15          16          17          18          19          20
 IAtWgt=          12          12          12           1           1           1           1           1           1           1
 AtmWgt=  12.0000000  12.0000000  12.0000000   1.0078250   1.0078250   1.0078250   1.0078250   1.0078250   1.0078250   1.0078250
 NucSpn=           0           0           0           1           1           1           1           1           1           1
 AtZEff=  -0.0000000  -0.0000000  -0.0000000  -0.0000000  -0.0000000  -0.0000000  -0.0000000  -0.0000000  -0.0000000  -0.0000000
 NQMom=    0.0000000   0.0000000   0.0000000   0.0000000   0.0000000   0.0000000   0.0000000   0.0000000   0.0000000   0.0000000
 NMagM=    0.0000000   0.0000000   0.0000000   2.7928460   2.7928460   2.7928460   2.7928460   2.7928460   2.7928460   2.7928460
 AtZNuc=   6.0000000   6.0000000   6.0000000   1.0000000   1.0000000   1.0000000   1.0000000   1.0000000   1.0000000   1.0000000

  Atom        21          22          23          24          25          26          27          28          29          30
 IAtWgt=          12          12          12          12          12          12           1           1           1           1
 AtmWgt=  12.0000000  12.0000000  12.0000000  12.0000000  12.0000000  12.0000000   1.0078250   1.0078250   1.0078250   1.0078250
 NucSpn=           0           0           0           0           0           0           1           1           1           1
 AtZEff=  -0.0000000  -0.0000000  -0.0000000  -0.0000000  -0.0000000  -0.0000000  -0.0000000  -0.0000000  -0.0000000  -0.0000000
 NQMom=    0.0000000   0.0000000   0.0000000   0.0000000   0.0000000   0.0000000   0.0000000   0.0000000   0.0000000   0.0000000
 NMagM=    0.0000000   0.0000000   0.0000000   0.0000000   0.0000000   0.0000000   2.7928460   2.7928460   2.7928460   2.7928460
 AtZNuc=   6.0000000   6.0000000   6.0000000   6.0000000   6.0000000   6.0000000   1.0000000   1.0000000   1.0000000   1.0000000

  Atom        31          32          33          34
 IAtWgt=           1          14          16          16
 AtmWgt=   1.0078250  14.0030740  15.9949146  15.9949146
 NucSpn=           1           2           0           0
 AtZEff=  -0.0000000  -0.0000000  -0.0000000  -0.0000000
 NQMom=    0.0000000   2.0440000   0.0000000   0.0000000
 NMagM=    2.7928460   0.4037610   0.0000000   0.0000000
 AtZNuc=   1.0000000   7.0000000   8.0000000   8.0000000
 Leave Link  101 at Thu May  6 04:03:48 2021, MaxMem=   524288000 cpu:               0.3 elap:               0.2
 (Enter /opt/gaussian/g16_legacy/l202.exe)
                          Input orientation:                          
 ---------------------------------------------------------------------
 Center     Atomic      Atomic             Coordinates (Angstroms)
 Number     Number       Type             X           Y           Z
 ---------------------------------------------------------------------
      1          6           0       -0.666000   -0.374000    0.000000
      2          6           0       -1.882000    0.553000    0.000000
      3          6           0       -3.207000   -0.210000    0.000000
      4          1           0       -0.713000   -1.030000   -0.880000
      5          1           0       -0.713000   -1.029000    0.881000
      6          1           0       -1.832000    1.207000   -0.880000
      7          1           0       -1.832000    1.207000    0.880000
      8          1           0       -3.283000   -0.850000    0.885000
      9          1           0       -3.283000   -0.850000   -0.885000
     10          1           0       -4.063000    0.472000    0.000000
     11          6           0        0.666000    0.374000    0.000000
     12          6           0        1.882000   -0.553000    0.000000
     13          6           0        3.207000    0.210000    0.000000
     14          1           0        0.713000    1.029000   -0.881000
     15          1           0        0.713000    1.030000    0.880000
     16          1           0        1.832000   -1.207000   -0.880000
     17          1           0        1.832000   -1.207000    0.880000
     18          1           0        3.283000    0.850000    0.885000
     19          1           0        3.283000    0.850000   -0.885000
     20          1           0        4.063000   -0.472000    0.000000
     21          6           0        1.306702   -6.066479   -2.479201
     22          6           0        0.794314   -6.120802   -1.178806
     23          6           0        1.421234   -5.427585   -0.139109
     24          6           0        2.563825   -4.686512   -0.436746
     25          6           0        3.098526   -4.612731   -1.722025
     26          6           0        2.455148   -5.313944   -2.746190
     27          1           0        0.813303   -6.608093   -3.280829
     28          1           0       -0.097433   -6.704427   -0.968533
     29          1           0        1.045910   -5.452294    0.876735
     30          1           0        3.989057   -4.022469   -1.900809
     31          1           0        2.855314   -5.269938   -3.755138
     32          7           0        3.236229   -3.948402    0.655712
     33          8           0        4.241508   -3.302672    0.367469
     34          8           0        2.745248   -4.029577    1.779539
 ---------------------------------------------------------------------
                    Distance matrix (angstroms):
                    1          2          3          4          5
     1  C    0.000000
     2  C    1.529047   0.000000
     3  C    2.546287   1.528985   0.000000
     4  H    1.098610   2.155655   2.768905   0.000000
     5  H    1.098815   2.155330   2.768927   1.761000   0.000000
     6  H    2.152561   1.097550   2.161692   2.501266   3.058264
     7  H    2.152561   1.097550   2.161692   3.058420   2.500372
     8  H    2.803300   2.171275   1.094806   3.122903   2.576229
     9  H    2.803300   2.171275   1.094806   2.576301   3.123411
    10  H    3.500761   2.182504   1.094468   3.775302   3.775137
    11  C    1.527654   2.554280   3.916782   2.155750   2.155507
    12  C    2.554280   3.923128   5.100546   2.781358   2.781504
    13  C    3.916782   5.100546   6.427736   4.204569   4.204484
    14  H    2.155507   2.781504   4.204484   2.504587   3.061615
    15  H    2.155750   2.781358   4.204569   3.061809   2.504587
    16  H    2.776381   4.203070   5.211519   2.551148   3.099973
    17  H    2.776381   4.203070   5.211519   3.099347   2.551217
    18  H    4.228002   5.248682   6.635279   4.755801   4.415730
    19  H    4.228002   5.248682   6.635279   4.416157   4.755777
    20  H    4.730015   6.032715   7.274720   4.888347   4.888413
    21  C    6.514776   7.754467   7.798608   5.657098   6.383286
    22  C    6.045480   7.286417   7.234478   5.317664   5.695722
    23  C    5.469426   6.833601   6.975894   4.943949   4.994309
    24  C    5.405578   6.885390   7.316579   4.929923   5.084430
    25  C    5.924852   7.379416   7.880931   5.298367   5.843509
    26  C    6.456483   7.795732   8.102575   5.645529   6.446271
    27  H    7.198340   8.325248   8.237856   6.261685   7.125777
    28  H    6.429279   7.536112   7.265332   5.708405   6.000847
    29  H    5.430320   6.738314   6.807169   5.073122   4.760180
    30  H    6.212403   7.682272   8.362490   5.666239   6.229660
    31  H    7.104289   8.393439   8.743894   6.243105   7.225801
    32  N    5.332326   6.847543   7.478022   5.145084   4.916307
    33  O    5.726761   7.245591   8.073409   5.591812   5.475440
    34  O    5.307223   6.751162   7.292817   5.294345   4.665867
                    6          7          8          9         10
     6  H    0.000000
     7  H    1.760000   0.000000
     8  H    3.074390   2.517275   0.000000
     9  H    2.517275   3.074390   1.770000   0.000000
    10  H    2.508383   2.508383   1.771810   1.771810   0.000000
    11  C    2.776381   2.776381   4.228002   4.228002   4.730015
    12  C    4.203070   4.203070   5.248682   5.248682   6.032715
    13  C    5.211519   5.211519   6.635279   6.635279   7.274720
    14  H    2.551217   3.099973   4.755777   4.415730   4.888413
    15  H    3.099347   2.551148   4.416157   4.755801   4.888347
    16  H    4.387743   4.727567   5.422721   5.127446   6.192291
    17  H    4.727567   4.387743   5.127446   5.422721   6.192291
    18  H    5.422721   5.127446   6.782504   7.009654   7.408767
    19  H    5.127446   5.422721   7.009654   6.782504   7.408767
    20  H    6.192291   6.192291   7.408767   7.408767   8.180649
    21  C    8.081608   8.604602   7.719771   7.128709   8.816566
    22  C    7.789961   8.051887   6.976040   6.670245   8.273338
    23  C    7.426316   7.459211   6.643260   6.606092   8.056133
    24  C    7.365680   7.469309   7.116966   7.007504   8.409269
    25  C    7.673875   8.059149   7.853572   7.455376   8.950269
    26  C    8.024027   8.605324   8.126419   7.504476   9.138105
    27  H    8.592863   9.240444   8.203016   7.461590   9.201624
    28  H    8.099830   8.307615   6.917929   6.665518   8.256203
    29  H    7.464227   7.254555   6.318278   6.559290   7.871905
    30  H    7.891394   8.304514   8.408811   7.998702   9.415357
    31  H    8.496356   9.241544   8.873874   8.090268   9.743407
    32  N    7.390773   7.232940   7.221704   7.380666   8.558543
    33  O    7.666865   7.582040   7.931057   8.012646   9.129515
    34  O    7.446213   7.012996   6.873841   7.317735   8.353634
                   11         12         13         14         15
    11  C    0.000000
    12  C    1.529047   0.000000
    13  C    2.546287   1.528985   0.000000
    14  H    1.098815   2.155330   2.768927   0.000000
    15  H    1.098610   2.155655   2.768905   1.761000   0.000000
    16  H    2.152561   1.097550   2.161692   2.500372   3.058420
    17  H    2.152561   1.097550   2.161692   3.058264   2.501266
    18  H    2.803300   2.171275   1.094806   3.123411   2.576301
    19  H    2.803300   2.171275   1.094806   2.576229   3.122903
    20  H    3.500761   2.182504   1.094468   3.775137   3.775302
    21  C    6.930852   6.072549   7.010832   7.297435   7.873800
    22  C    6.602159   5.794227   6.876750   7.156463   7.441724
    23  C    5.852189   4.898289   5.915292   6.537544   6.575757
    24  C    5.422294   4.212072   4.957847   6.024118   6.151250
    25  C    5.809478   4.574573   5.122096   6.182814   6.655951
    26  C    6.564702   5.525997   6.214563   6.837174   7.511988
    27  H    7.715903   6.969225   7.935995   8.005900   8.698449
    28  H    7.185055   6.534238   7.724418   7.776269   7.993450
    29  H    5.904125   5.046860   6.123769   6.723662   6.490838
    30  H    5.829642   4.482185   4.705155   6.106546   6.632714
    31  H    7.123777   6.107201   6.652403   7.247537   8.109453
    32  N    5.071410   3.713846   4.209884   5.788152   5.585828
    33  O    5.141713   3.641841   3.680232   5.724721   5.611159
    34  O    5.184739   3.999818   4.621037   6.066111   5.526167
                   16         17         18         19         20
    16  H    0.000000
    17  H    1.760000   0.000000
    18  H    3.074390   2.517275   0.000000
    19  H    2.517275   3.074390   1.770000   0.000000
    20  H    2.508383   2.508383   1.771810   1.771810   0.000000
    21  C    5.142754   5.930827   7.941114   7.367830   6.711320
    22  C    5.031056   5.427792   7.684070   7.407561   6.631957
    23  C    4.304763   4.361267   6.627446   6.590190   5.617482
    24  C    3.583161   3.791621   5.737350   5.600992   4.494484
    25  C    3.729892   4.469186   6.055744   5.529563   4.587072
    26  C    4.553896   5.514033   7.201742   6.491808   5.794063
    27  H    5.997794   6.893624   8.892507   8.213559   7.679584
    28  H    5.826856   6.112405   8.481290   8.276695   7.555819
    29  H    4.661178   4.317461   6.687567   6.915721   5.888533
    30  H    3.690774   4.506957   5.656872   5.027061   4.027949
    31  H    5.081442   6.248131   7.692037   6.773053   6.211262
    32  N    3.441737   3.088276   4.804105   5.039905   3.633026
    33  O    3.428374   3.234232   4.293164   4.442083   2.860000
    34  O    3.984233   3.100021   4.989955   5.585626   4.190416
                   21         22         23         24         25
    21  C    0.000000
    22  C    1.398756   0.000000
    23  C    2.428443   1.398052   0.000000
    24  C    2.767000   2.395623   1.394020   0.000000
    25  C    2.428442   2.806913   2.446001   1.394020   0.000000
    26  C    1.398757   2.422000   2.806914   2.395624   1.398052
    27  H    1.086000   2.157849   3.410804   3.853000   3.410804
    28  H    2.158863   1.086299   2.150493   3.381874   3.893212
    29  H    3.421629   2.176109   1.083244   2.148423   3.416380
    30  H    3.421629   3.889817   3.416380   2.148423   1.083244
    31  H    2.158864   3.407224   3.893213   3.381875   2.150493
    32  N    4.246999   3.748030   2.472636   1.479999   2.472636
    33  O    4.935103   4.713382   3.567327   2.318705   2.718207
    34  O    4.935104   4.114750   2.718207   2.318706   3.567327
                   26         27         28         29         30
    26  C    0.000000
    27  H    2.157850   0.000000
    28  H    3.407224   2.487053   0.000000
    29  H    3.889817   4.321495   2.506010   0.000000
    30  H    2.176110   4.321495   4.976087   4.292000   0.000000
    31  H    1.086299   2.487054   4.306001   4.976087   2.506010
    32  N    3.748030   5.332999   4.620297   2.666091   2.666090
    33  O    4.114750   5.999040   5.673028   3.884852   2.393099
    34  O    4.713383   5.999040   4.773631   2.393100   3.884852
                   31         32         33         34
    31  H    0.000000
    32  N    4.620298   0.000000
    33  O    4.773632   1.229080   0.000000
    34  O    5.673029   1.229080   2.182001   0.000000
 Stoichiometry    C12H19NO2
 Framework group  C1[X(C12H19NO2)]
 Deg. of freedom    96
 Full point group                 C1      NOp   1
 Largest Abelian subgroup         C1      NOp   1
 Largest concise Abelian subgroup C1      NOp   1
                         Standard orientation:                         
 ---------------------------------------------------------------------
 Center     Atomic      Atomic             Coordinates (Angstroms)
 Number     Number       Type             X           Y           Z
 ---------------------------------------------------------------------
      1          6           0       -3.075944   -0.489658    0.013382
      2          6           0       -4.493725   -1.060620   -0.030008
      3          6           0       -4.564992   -2.504588    0.467661
      4          1           0       -2.414223   -1.121632   -0.594630
      5          1           0       -2.698309   -0.542350    1.043921
      6          1           0       -4.869092   -1.005594   -1.059904
      7          1           0       -5.152187   -0.427104    0.578023
      8          1           0       -4.215906   -2.572876    1.503072
      9          1           0       -3.931203   -3.154653   -0.144162
     10          1           0       -5.587503   -2.892870    0.428069
     11          6           0       -2.988484    0.953117   -0.481067
     12          6           0       -1.570702    1.524080   -0.437677
     13          6           0       -1.499435    2.968047   -0.935346
     14          1           0       -3.366118    1.005809   -1.511606
     15          1           0       -3.650205    1.585092    0.126945
     16          1           0       -0.912241    0.890564   -1.045708
     17          1           0       -1.195335    1.469054    0.592220
     18          1           0       -2.133224    3.618113   -0.323523
     19          1           0       -1.848522    3.036336   -1.970757
     20          1           0       -0.476924    3.356329   -0.895753
     21          6           0        3.104002   -2.319686   -0.936131
     22          6           0        2.667203   -2.339076    0.392534
     23          6           0        2.257595   -1.160155    1.022546
     24          6           0        2.297851    0.025718    0.290853
     25          6           0        2.727927    0.077456   -1.034156
     26          6           0        3.132919   -1.113609   -1.643988
     27          1           0        3.420403   -3.240217   -1.417701
     28          1           0        2.643687   -3.274273    0.944710
     29          1           0        1.914922   -1.146560    2.050072
     30          1           0        2.740214    1.025079   -1.558826
     31          1           0        3.471671   -1.095551   -2.675960
     32          7           0        1.866662    1.280216    0.947136
     33          8           0        1.911545    2.311994    0.280760
     34          8           0        1.491976    1.207960    2.115480
 ---------------------------------------------------------------------
 Rotational constants (GHZ):           0.6104789           0.2727680           0.2225572
 Leave Link  202 at Thu May  6 04:03:48 2021, MaxMem=   524288000 cpu:               0.1 elap:               0.1
 (Enter /opt/gaussian/g16_legacy/l301.exe)
 Standard basis: 6-31G(d) (6D, 7F)
 Ernie: Thresh=  0.10000D-02 Tol=  0.10000D-05 Strict=F.
 There are   263 symmetry adapted cartesian basis functions of A   symmetry.
 There are   263 symmetry adapted basis functions of A   symmetry.
   263 basis functions,   496 primitive gaussians,   263 cartesian basis functions
    57 alpha electrons       57 beta electrons
       nuclear repulsion energy       945.6605917916 Hartrees.
 IExCor=    0 DFT=F Ex=HF Corr=None ExCW=0 ScaHFX=  1.000000
 ScaDFX=  1.000000  1.000000  1.000000  1.000000 ScalE2=  1.000000  1.000000
 IRadAn=      5 IRanWt=     -1 IRanGd=            0 ICorTp=0 IEmpDi=  4
 NAtoms=   34 NActive=   34 NUniq=   34 SFac= 1.00D+00 NAtFMM=   60 NAOKFM=F Big=F
 Integral buffers will be    131072 words long.
 Raffenetti 1 integral format.
 Two-electron integral symmetry is turned on.
 Leave Link  301 at Thu May  6 04:03:49 2021, MaxMem=   524288000 cpu:               0.3 elap:               0.3
 (Enter /opt/gaussian/g16_legacy/l302.exe)
 NPDir=0 NMtPBC=     1 NCelOv=     1 NCel=       1 NClECP=     1 NCelD=      1
         NCelK=      1 NCelE2=     1 NClLst=     1 CellRange=     0.0.
 One-electron integrals computed using PRISM.
 One-electron integral symmetry used in STVInt
 NBasis=   263 RedAO= T EigKep=  4.81D-04  NBF=   263
 NBsUse=   263 1.00D-06 EigRej= -1.00D+00 NBFU=   263
 Leave Link  302 at Thu May  6 04:03:50 2021, MaxMem=   524288000 cpu:               0.8 elap:               0.9
 (Enter /opt/gaussian/g16_legacy/l303.exe)
 DipDrv:  MaxL=1.
 Leave Link  303 at Thu May  6 04:03:50 2021, MaxMem=   524288000 cpu:               0.1 elap:               0.1
 (Enter /opt/gaussian/g16_legacy/l401.exe)
 ExpMin= 1.61D-01 ExpMax= 5.48D+03 ExpMxC= 8.25D+02 IAcc=3 IRadAn=         5 AccDes= 0.00D+00
 Harris functional with IExCor=  205 and IRadAn=       5 diagonalized for initial guess.
 HarFok:  IExCor=  205 AccDes= 0.00D+00 IRadAn=         5 IDoV= 1 UseB2=F ITyADJ=14
 ICtDFT=  3500011 ScaDFX=  1.000000  1.000000  1.000000  1.000000
 FoFCou: FMM=F IPFlag=           0 FMFlag=      100000 FMFlg1=           0
         NFxFlg=           0 DoJE=T BraDBF=F KetDBF=T FulRan=T
         wScrn=  0.000000 ICntrl=       500 IOpCl=  0 I1Cent=   200000004 NGrid=           0
         NMat0=    1 NMatS0=      1 NMatT0=    0 NMatD0=    1 NMtDS0=    0 NMtDT0=    0
 Petite list used in FoFCou.
 Harris En= -670.658994689939    
 JPrj=0 DoOrth=F DoCkMO=F.
 Leave Link  401 at Thu May  6 04:03:58 2021, MaxMem=   524288000 cpu:              14.6 elap:               7.5
 (Enter /opt/gaussian/g16_legacy/l502.exe)
 Integral symmetry usage will be decided dynamically.
 Closed shell SCF:
 Using DIIS extrapolation, IDIIS=  1040.
 NGot=   524288000 LenX=   524144919 LenY=   524075309
 Requested convergence on RMS density matrix=1.00D-08 within 128 cycles.
 Requested convergence on MAX density matrix=1.00D-06.
 Requested convergence on             energy=1.00D-06.
 No special actions if energy rises.
 Fock matrices will be formed incrementally for  20 cycles.
 Integral accuracy reduced to 1.0D-05 until final iterations.

 Cycle   1  Pass 0  IDiag  1:
 FoFJK:  IHMeth= 1 ICntrl=       0 DoSepK=F KAlg= 0 I1Cent=           0 FoldK=F
 IRaf= 800000000 NMat=       1 IRICut=       1 DoRegI=T DoRafI=F ISym2E= 0 IDoP0=0 IntGTp=1.
 FoFCou: FMM=F IPFlag=           0 FMFlag=      100000 FMFlg1=           0
         NFxFlg=           0 DoJE=F BraDBF=F KetDBF=F FulRan=T
         wScrn=  0.000000 ICntrl=         0 IOpCl=  0 I1Cent=           0 NGrid=           0
         NMat0=    1 NMatS0=      1 NMatT0=    0 NMatD0=    1 NMtDS0=    0 NMtDT0=    0
 Symmetry not used in FoFCou.
 E= -668.740701758437    
 DIIS: error= 5.75D-02 at cycle   1 NSaved=   1.
 NSaved= 1 IEnMin= 1 EnMin= -668.740701758437     IErMin= 1 ErrMin= 5.75D-02
 ErrMax= 5.75D-02  0.00D+00 EMaxC= 1.00D-01 BMatC= 1.17D+00 BMatP= 1.17D+00
 IDIUse=3 WtCom= 4.25D-01 WtEn= 5.75D-01
 Coeff-Com:  0.100D+01
 Coeff-En:   0.100D+01
 Coeff:      0.100D+01
 Gap=     0.556 Goal=   None    Shift=    0.000
 GapD=    0.556 DampG=2.000 DampE=0.500 DampFc=1.0000 IDamp=-1.
 RMSDP=4.59D-03 MaxDP=1.20D-01              OVMax= 1.51D-01

 Cycle   2  Pass 0  IDiag  1:
 RMSU=  4.47D-03    CP:  9.48D-01
 E= -669.359201303449     Delta-E=       -0.618499545011 Rises=F Damp=F
 DIIS: error= 3.28D-02 at cycle   2 NSaved=   2.
 NSaved= 2 IEnMin= 2 EnMin= -669.359201303449     IErMin= 2 ErrMin= 3.28D-02
 ErrMax= 3.28D-02  0.00D+00 EMaxC= 1.00D-01 BMatC= 2.18D-01 BMatP= 1.17D+00
 IDIUse=3 WtCom= 6.72D-01 WtEn= 3.28D-01
 Coeff-Com:  0.246D+00 0.754D+00
 Coeff-En:   0.000D+00 0.100D+01
 Coeff:      0.166D+00 0.834D+00
 Gap=     0.564 Goal=   None    Shift=    0.000
 RMSDP=1.84D-03 MaxDP=8.60D-02 DE=-6.18D-01 OVMax= 1.03D-01

 Cycle   3  Pass 0  IDiag  1:
 RMSU=  1.45D-03    CP:  9.57D-01  7.52D-01
 E= -669.506169369832     Delta-E=       -0.146968066384 Rises=F Damp=F
 DIIS: error= 1.71D-02 at cycle   3 NSaved=   3.
 NSaved= 3 IEnMin= 3 EnMin= -669.506169369832     IErMin= 3 ErrMin= 1.71D-02
 ErrMax= 1.71D-02  0.00D+00 EMaxC= 1.00D-01 BMatC= 3.92D-02 BMatP= 2.18D-01
 IDIUse=3 WtCom= 8.29D-01 WtEn= 1.71D-01
 Coeff-Com: -0.954D-02 0.278D+00 0.731D+00
 Coeff-En:   0.000D+00 0.000D+00 0.100D+01
 Coeff:     -0.791D-02 0.231D+00 0.777D+00
 Gap=     0.426 Goal=   None    Shift=    0.000
 RMSDP=6.32D-04 MaxDP=3.37D-02 DE=-1.47D-01 OVMax= 5.29D-02

 Cycle   4  Pass 0  IDiag  1:
 RMSU=  4.08D-04    CP:  9.55D-01  8.35D-01  7.90D-01
 E= -669.533680522531     Delta-E=       -0.027511152699 Rises=F Damp=F
 DIIS: error= 5.62D-03 at cycle   4 NSaved=   4.
 NSaved= 4 IEnMin= 4 EnMin= -669.533680522531     IErMin= 4 ErrMin= 5.62D-03
 ErrMax= 5.62D-03  0.00D+00 EMaxC= 1.00D-01 BMatC= 3.45D-03 BMatP= 3.92D-02
 IDIUse=3 WtCom= 9.44D-01 WtEn= 5.62D-02
 Coeff-Com: -0.133D-01 0.454D-01 0.300D+00 0.668D+00
 Coeff-En:   0.000D+00 0.000D+00 0.000D+00 0.100D+01
 Coeff:     -0.126D-01 0.428D-01 0.284D+00 0.686D+00
 Gap=     0.411 Goal=   None    Shift=    0.000
 RMSDP=1.84D-04 MaxDP=9.99D-03 DE=-2.75D-02 OVMax= 1.57D-02

 Cycle   5  Pass 0  IDiag  1:
 RMSU=  9.88D-05    CP:  9.55D-01  8.35D-01  8.68D-01  7.46D-01
 E= -669.536406783451     Delta-E=       -0.002726260920 Rises=F Damp=F
 DIIS: error= 4.81D-04 at cycle   5 NSaved=   5.
 NSaved= 5 IEnMin= 5 EnMin= -669.536406783451     IErMin= 5 ErrMin= 4.81D-04
 ErrMax= 4.81D-04  0.00D+00 EMaxC= 1.00D-01 BMatC= 6.84D-05 BMatP= 3.45D-03
 IDIUse=3 WtCom= 9.95D-01 WtEn= 4.81D-03
 Coeff-Com:  0.201D-02-0.203D-01-0.772D-01-0.197D-01 0.112D+01
 Coeff-En:   0.000D+00 0.000D+00 0.000D+00 0.000D+00 0.100D+01
 Coeff:      0.200D-02-0.202D-01-0.768D-01-0.196D-01 0.111D+01
 Gap=     0.413 Goal=   None    Shift=    0.000
 RMSDP=5.38D-05 MaxDP=1.84D-03 DE=-2.73D-03 OVMax= 4.82D-03

 Cycle   6  Pass 0  IDiag  1:
 RMSU=  2.52D-05    CP:  9.55D-01  8.38D-01  8.80D-01  8.32D-01  1.24D+00
 E= -669.536523673984     Delta-E=       -0.000116890533 Rises=F Damp=F
 DIIS: error= 1.95D-04 at cycle   6 NSaved=   6.
 NSaved= 6 IEnMin= 6 EnMin= -669.536523673984     IErMin= 6 ErrMin= 1.95D-04
 ErrMax= 1.95D-04  0.00D+00 EMaxC= 1.00D-01 BMatC= 5.97D-06 BMatP= 6.84D-05
 IDIUse=3 WtCom= 9.98D-01 WtEn= 1.95D-03
 Coeff-Com:  0.127D-02-0.690D-02-0.348D-01-0.500D-01 0.140D+00 0.951D+00
 Coeff-En:   0.000D+00 0.000D+00 0.000D+00 0.000D+00 0.000D+00 0.100D+01
 Coeff:      0.126D-02-0.689D-02-0.347D-01-0.499D-01 0.140D+00 0.951D+00
 Gap=     0.413 Goal=   None    Shift=    0.000
 RMSDP=1.76D-05 MaxDP=5.82D-04 DE=-1.17D-04 OVMax= 1.67D-03

 Cycle   7  Pass 0  IDiag  1:
 RMSU=  8.80D-06    CP:  9.55D-01  8.38D-01  8.83D-01  8.45D-01  1.37D+00
                    CP:  1.18D+00
 E= -669.536538942771     Delta-E=       -0.000015268787 Rises=F Damp=F
 DIIS: error= 1.33D-04 at cycle   7 NSaved=   7.
 NSaved= 7 IEnMin= 7 EnMin= -669.536538942771     IErMin= 7 ErrMin= 1.33D-04
 ErrMax= 1.33D-04  0.00D+00 EMaxC= 1.00D-01 BMatC= 1.15D-06 BMatP= 5.97D-06
 IDIUse=3 WtCom= 9.99D-01 WtEn= 1.33D-03
 Coeff-Com: -0.261D-03 0.259D-02 0.993D-02 0.443D-02-0.152D+00 0.303D-02
 Coeff-Com:  0.113D+01
 Coeff-En:   0.000D+00 0.000D+00 0.000D+00 0.000D+00 0.000D+00 0.000D+00
 Coeff-En:   0.100D+01
 Coeff:     -0.261D-03 0.259D-02 0.992D-02 0.442D-02-0.152D+00 0.303D-02
 Coeff:      0.113D+01
 Gap=     0.413 Goal=   None    Shift=    0.000
 RMSDP=9.03D-06 MaxDP=4.84D-04 DE=-1.53D-05 OVMax= 1.36D-03

 Initial convergence to 1.0D-05 achieved.  Increase integral accuracy.
 Cycle   8  Pass 1  IDiag  1:
 E= -669.536543526423     Delta-E=       -0.000004583651 Rises=F Damp=F
 DIIS: error= 6.43D-05 at cycle   1 NSaved=   1.
 NSaved= 1 IEnMin= 1 EnMin= -669.536543526423     IErMin= 1 ErrMin= 6.43D-05
 ErrMax= 6.43D-05  0.00D+00 EMaxC= 1.00D-01 BMatC= 3.79D-07 BMatP= 3.79D-07
 IDIUse=1 WtCom= 1.00D+00 WtEn= 0.00D+00
 Coeff-Com:  0.100D+01
 Coeff:      0.100D+01
 Gap=     0.413 Goal=   None    Shift=    0.000
 RMSDP=9.03D-06 MaxDP=4.84D-04 DE=-4.58D-06 OVMax= 5.33D-04

 Cycle   9  Pass 1  IDiag  1:
 RMSU=  1.19D-05    CP:  1.00D+00
 E= -669.536544551841     Delta-E=       -0.000001025419 Rises=F Damp=F
 DIIS: error= 4.83D-05 at cycle   2 NSaved=   2.
 NSaved= 2 IEnMin= 2 EnMin= -669.536544551841     IErMin= 2 ErrMin= 4.83D-05
 ErrMax= 4.83D-05  0.00D+00 EMaxC= 1.00D-01 BMatC= 1.16D-07 BMatP= 3.79D-07
 IDIUse=1 WtCom= 1.00D+00 WtEn= 0.00D+00
 Coeff-Com:  0.665D-02 0.993D+00
 Coeff:      0.665D-02 0.993D+00
 Gap=     0.413 Goal=   None    Shift=    0.000
 RMSDP=2.32D-06 MaxDP=1.06D-04 DE=-1.03D-06 OVMax= 3.83D-04

 Cycle  10  Pass 1  IDiag  1:
 RMSU=  2.10D-06    CP:  1.00D+00  1.08D+00
 E= -669.536544958570     Delta-E=       -0.000000406729 Rises=F Damp=F
 DIIS: error= 2.92D-05 at cycle   3 NSaved=   3.
 NSaved= 3 IEnMin= 3 EnMin= -669.536544958570     IErMin= 3 ErrMin= 2.92D-05
 ErrMax= 2.92D-05  0.00D+00 EMaxC= 1.00D-01 BMatC= 5.39D-08 BMatP= 1.16D-07
 IDIUse=1 WtCom= 1.00D+00 WtEn= 0.00D+00
 Coeff-Com: -0.343D+00 0.130D+00 0.121D+01
 Coeff:     -0.343D+00 0.130D+00 0.121D+01
 Gap=     0.413 Goal=   None    Shift=    0.000
 RMSDP=2.41D-06 MaxDP=8.43D-05 DE=-4.07D-07 OVMax= 3.60D-04

 Cycle  11  Pass 1  IDiag  1:
 RMSU=  1.45D-06    CP:  1.00D+00  1.16D+00  1.81D+00
 E= -669.536545227150     Delta-E=       -0.000000268580 Rises=F Damp=F
 DIIS: error= 1.26D-05 at cycle   4 NSaved=   4.
 NSaved= 4 IEnMin= 4 EnMin= -669.536545227150     IErMin= 4 ErrMin= 1.26D-05
 ErrMax= 1.26D-05  0.00D+00 EMaxC= 1.00D-01 BMatC= 9.06D-09 BMatP= 5.39D-08
 IDIUse=1 WtCom= 1.00D+00 WtEn= 0.00D+00
 Coeff-Com: -0.983D-02-0.315D+00 0.133D-02 0.132D+01
 Coeff:     -0.983D-02-0.315D+00 0.133D-02 0.132D+01
 Gap=     0.413 Goal=   None    Shift=    0.000
 RMSDP=1.56D-06 MaxDP=5.81D-05 DE=-2.69D-07 OVMax= 2.40D-04

 Cycle  12  Pass 1  IDiag  1:
 RMSU=  2.68D-07    CP:  1.00D+00  1.18D+00  2.47D+00  1.43D+00
 E= -669.536545282882     Delta-E=       -0.000000055732 Rises=F Damp=F
 DIIS: error= 2.34D-06 at cycle   5 NSaved=   5.
 NSaved= 5 IEnMin= 5 EnMin= -669.536545282882     IErMin= 5 ErrMin= 2.34D-06
 ErrMax= 2.34D-06  0.00D+00 EMaxC= 1.00D-01 BMatC= 1.27D-09 BMatP= 9.06D-09
 IDIUse=1 WtCom= 1.00D+00 WtEn= 0.00D+00
 Coeff-Com:  0.212D-01-0.148D+00-0.838D-01 0.584D+00 0.627D+00
 Coeff:      0.212D-01-0.148D+00-0.838D-01 0.584D+00 0.627D+00
 Gap=     0.413 Goal=   None    Shift=    0.000
 RMSDP=1.72D-07 MaxDP=7.43D-06 DE=-5.57D-08 OVMax= 2.30D-05

 Cycle  13  Pass 1  IDiag  1:
 RMSU=  9.52D-08    CP:  1.00D+00  1.18D+00  2.52D+00  1.49D+00  8.37D-01
 E= -669.536545284380     Delta-E=       -0.000000001498 Rises=F Damp=F
 DIIS: error= 8.53D-07 at cycle   6 NSaved=   6.
 NSaved= 6 IEnMin= 6 EnMin= -669.536545284380     IErMin= 6 ErrMin= 8.53D-07
 ErrMax= 8.53D-07  0.00D+00 EMaxC= 1.00D-01 BMatC= 4.48D-11 BMatP= 1.27D-09
 IDIUse=1 WtCom= 1.00D+00 WtEn= 0.00D+00
 Coeff-Com: -0.153D-02 0.463D-01 0.113D-01-0.194D+00-0.106D+00 0.124D+01
 Coeff:     -0.153D-02 0.463D-01 0.113D-01-0.194D+00-0.106D+00 0.124D+01
 Gap=     0.413 Goal=   None    Shift=    0.000
 RMSDP=5.79D-08 MaxDP=2.04D-06 DE=-1.50D-09 OVMax= 5.78D-06

 Cycle  14  Pass 1  IDiag  1:
 RMSU=  3.01D-08    CP:  1.00D+00  1.18D+00  2.53D+00  1.50D+00  9.46D-01
                    CP:  1.30D+00
 E= -669.536545284506     Delta-E=       -0.000000000126 Rises=F Damp=F
 DIIS: error= 3.44D-07 at cycle   7 NSaved=   7.
 NSaved= 7 IEnMin= 7 EnMin= -669.536545284506     IErMin= 7 ErrMin= 3.44D-07
 ErrMax= 3.44D-07  0.00D+00 EMaxC= 1.00D-01 BMatC= 8.03D-12 BMatP= 4.48D-11
 IDIUse=1 WtCom= 1.00D+00 WtEn= 0.00D+00
 Coeff-Com: -0.287D-02 0.268D-01 0.127D-01-0.110D+00-0.112D+00 0.275D+00
 Coeff-Com:  0.910D+00
 Coeff:     -0.287D-02 0.268D-01 0.127D-01-0.110D+00-0.112D+00 0.275D+00
 Coeff:      0.910D+00
 Gap=     0.413 Goal=   None    Shift=    0.000
 RMSDP=1.89D-08 MaxDP=9.01D-07 DE=-1.26D-10 OVMax= 2.21D-06

 Cycle  15  Pass 1  IDiag  1:
 RMSU=  1.05D-08    CP:  1.00D+00  1.18D+00  2.54D+00  1.50D+00  9.59D-01
                    CP:  1.42D+00  1.14D+00
 E= -669.536545284534     Delta-E=       -0.000000000028 Rises=F Damp=F
 DIIS: error= 7.78D-08 at cycle   8 NSaved=   8.
 NSaved= 8 IEnMin= 8 EnMin= -669.536545284534     IErMin= 8 ErrMin= 7.78D-08
 ErrMax= 7.78D-08  0.00D+00 EMaxC= 1.00D-01 BMatC= 1.42D-12 BMatP= 8.03D-12
 IDIUse=1 WtCom= 1.00D+00 WtEn= 0.00D+00
 Coeff-Com: -0.239D-03-0.221D-02 0.119D-02 0.873D-02-0.108D-01-0.116D+00
 Coeff-Com:  0.165D+00 0.955D+00
 Coeff:     -0.239D-03-0.221D-02 0.119D-02 0.873D-02-0.108D-01-0.116D+00
 Coeff:      0.165D+00 0.955D+00
 Gap=     0.413 Goal=   None    Shift=    0.000
 RMSDP=6.86D-09 MaxDP=3.42D-07 DE=-2.75D-11 OVMax= 5.73D-07

 SCF Done:  E(RHF) =  -669.536545285     A.U. after   15 cycles
            NFock= 15  Conv=0.69D-08     -V/T= 2.0024
 KE= 6.679550109101D+02 PE=-3.454639533214D+03 EE= 1.171487385228D+03
 Leave Link  502 at Thu May  6 04:04:54 2021, MaxMem=   524288000 cpu:             105.9 elap:              55.8
 (Enter /opt/gaussian/g16_legacy/l801.exe)
 ExpMin= 1.61D-01 ExpMax= 5.48D+03 ExpMxC= 8.25D+02 IAcc=3 IRadAn=         5 AccDes= 0.00D+00
 HarFok:  IExCor=  205 AccDes= 0.00D+00 IRadAn=         5 IDoV=-2 UseB2=F ITyADJ=14
 ICtDFT= 12500011 ScaDFX=  1.000000  1.000000  1.000000  1.000000
 Largest valence mixing into a core orbital is  1.98D-04
 Largest core mixing into a valence orbital is  4.00D-05
 Range of M.O.s used for correlation:    16   263
 NBasis=   263 NAE=    57 NBE=    57 NFC=    15 NFV=     0
 NROrb=    248 NOA=    42 NOB=    42 NVA=   206 NVB=   206
 Leave Link  801 at Thu May  6 04:04:55 2021, MaxMem=   524288000 cpu:               2.0 elap:               1.2
 (Enter /opt/gaussian/g16_legacy/l906.exe)
 FulOut=F Deriv=F AODrv=F NAtomX=    34
   MMem=         113  MDisk=          42 MDiskD=          42
  W3Min=     2275476 MinDsk=     2420380 NBas6D=         263
 NBas2D=       35121    NTT=       34716    LW2=     2000000
    MDV=   523924056 MDiskM=       27562 NBas2p=       26498
 Fully direct method using O(OVN) memory.
 IMap=   1   2   3   4   5   6   7   8   9  10  11  12  13  14  15  16  17  18  19  20
 IMap=  21  22  23  24  25  26  27  28  29  30  31  32  33  34  35  36  37  38  39  40
 IMap=  41  42
 JobTyp=1 Pass  1:  I=   1 to  42 NPSUse=  2 ParTrn=T ParDer=T DoDerP=F.
 Spin components of T(2) and E(2):
     alpha-alpha T2 =       0.9507245609D-01 E2=     -0.2722446210D+00
     alpha-beta  T2 =       0.5263259702D+00 E2=     -0.1548340223D+01
     beta-beta   T2 =       0.9507245609D-01 E2=     -0.2722446210D+00
 The integrals were generated   1 times.
 ANorm=    0.1310141551D+01
 E2 =    -0.2092829466D+01 EUMP2 =    -0.67162937475005D+03
 Leave Link  906 at Thu May  6 04:06:33 2021, MaxMem=   524288000 cpu:             193.0 elap:              97.4
 (Enter /opt/gaussian/g16_legacy/l601.exe)
 Copying SCF densities to generalized density rwf, IOpCl= 0 IROHF=0.

 **********************************************************************

            Population analysis using the SCF density.

 **********************************************************************

 Orbital symmetries:
       Occupied  (A) (A) (A) (A) (A) (A) (A) (A) (A) (A) (A) (A)
                 (A) (A) (A) (A) (A) (A) (A) (A) (A) (A) (A) (A)
                 (A) (A) (A) (A) (A) (A) (A) (A) (A) (A) (A) (A)
                 (A) (A) (A) (A) (A) (A) (A) (A) (A) (A) (A) (A)
                 (A) (A) (A) (A) (A) (A) (A) (A) (A)
       Virtual   (A) (A) (A) (A) (A) (A) (A) (A) (A) (A) (A) (A)
                 (A) (A) (A) (A) (A) (A) (A) (A) (A) (A) (A) (A)
                 (A) (A) (A) (A) (A) (A) (A) (A) (A) (A) (A) (A)
                 (A) (A) (A) (A) (A) (A) (A) (A) (A) (A) (A) (A)
                 (A) (A) (A) (A) (A) (A) (A) (A) (A) (A) (A) (A)
                 (A) (A) (A) (A) (A) (A) (A) (A) (A) (A) (A) (A)
                 (A) (A) (A) (A) (A) (A) (A) (A) (A) (A) (A) (A)
                 (A) (A) (A) (A) (A) (A) (A) (A) (A) (A) (A) (A)
                 (A) (A) (A) (A) (A) (A) (A) (A) (A) (A) (A) (A)
                 (A) (A) (A) (A) (A) (A) (A) (A) (A) (A) (A) (A)
                 (A) (A) (A) (A) (A) (A) (A) (A) (A) (A) (A) (A)
                 (A) (A) (A) (A) (A) (A) (A) (A) (A) (A) (A) (A)
                 (A) (A) (A) (A) (A) (A) (A) (A) (A) (A) (A) (A)
                 (A) (A) (A) (A) (A) (A) (A) (A) (A) (A) (A) (A)
                 (A) (A) (A) (A) (A) (A) (A) (A) (A) (A) (A) (A)
                 (A) (A) (A) (A) (A) (A) (A) (A) (A) (A) (A) (A)
                 (A) (A) (A) (A) (A) (A) (A) (A) (A) (A) (A) (A)
                 (A) (A)
 The electronic state is 1-A.
 Alpha  occ. eigenvalues --  -20.60965 -20.60957 -15.85966 -11.31273 -11.27833
 Alpha  occ. eigenvalues --  -11.27824 -11.27566 -11.26838 -11.26827 -11.21347
 Alpha  occ. eigenvalues --  -11.21017 -11.20940 -11.20838 -11.20777 -11.19935
 Alpha  occ. eigenvalues --   -1.60003  -1.39564  -1.19436  -1.08844  -1.07943
 Alpha  occ. eigenvalues --   -1.04831  -1.02974  -0.95697  -0.95408  -0.86436
 Alpha  occ. eigenvalues --   -0.86231  -0.82532  -0.79091  -0.77765  -0.77586
 Alpha  occ. eigenvalues --   -0.72208  -0.71299  -0.70548  -0.65096  -0.64837
 Alpha  occ. eigenvalues --   -0.64578  -0.62179  -0.60381  -0.58804  -0.56985
 Alpha  occ. eigenvalues --   -0.55338  -0.54724  -0.53161  -0.52924  -0.52064
 Alpha  occ. eigenvalues --   -0.51844  -0.49391  -0.48969  -0.48949  -0.47388
 Alpha  occ. eigenvalues --   -0.46144  -0.45294  -0.45266  -0.44837  -0.43207
 Alpha  occ. eigenvalues --   -0.37400  -0.36427
 Alpha virt. eigenvalues --    0.04904   0.11194   0.16358   0.21325   0.23319
 Alpha virt. eigenvalues --    0.24903   0.27041   0.27285   0.27657   0.28229
 Alpha virt. eigenvalues --    0.28732   0.30857   0.31753   0.32144   0.32258
 Alpha virt. eigenvalues --    0.33443   0.34135   0.34476   0.34591   0.35235
 Alpha virt. eigenvalues --    0.35509   0.36590   0.37015   0.37221   0.39983
 Alpha virt. eigenvalues --    0.41163   0.43315   0.44260   0.45660   0.45914
 Alpha virt. eigenvalues --    0.46387   0.47803   0.50196   0.51733   0.56989
 Alpha virt. eigenvalues --    0.67093   0.67432   0.69646   0.69930   0.70438
 Alpha virt. eigenvalues --    0.71171   0.73261   0.75582   0.76989   0.77572
 Alpha virt. eigenvalues --    0.78184   0.78527   0.78841   0.79315   0.79887
 Alpha virt. eigenvalues --    0.80720   0.81633   0.83745   0.84259   0.85836
 Alpha virt. eigenvalues --    0.87402   0.87716   0.87854   0.89678   0.93631
 Alpha virt. eigenvalues --    0.95015   0.96513   0.98395   0.98930   1.01787
 Alpha virt. eigenvalues --    1.02220   1.03236   1.04796   1.06303   1.07184
 Alpha virt. eigenvalues --    1.08153   1.08495   1.08705   1.09124   1.11369
 Alpha virt. eigenvalues --    1.12647   1.14533   1.15219   1.16648   1.17099
 Alpha virt. eigenvalues --    1.17198   1.18876   1.19396   1.19917   1.20605
 Alpha virt. eigenvalues --    1.21189   1.21442   1.21602   1.21804   1.22609
 Alpha virt. eigenvalues --    1.23059   1.23989   1.24661   1.26074   1.27620
 Alpha virt. eigenvalues --    1.27672   1.30871   1.31112   1.33954   1.34503
 Alpha virt. eigenvalues --    1.37707   1.40291   1.40811   1.46391   1.47150
 Alpha virt. eigenvalues --    1.53073   1.53588   1.56619   1.60373   1.65510
 Alpha virt. eigenvalues --    1.66587   1.66869   1.67096   1.67577   1.67850
 Alpha virt. eigenvalues --    1.71894   1.72529   1.73206   1.73342   1.73900
 Alpha virt. eigenvalues --    1.75453   1.80064   1.81812   1.93438   1.96920
 Alpha virt. eigenvalues --    1.99307   1.99948   2.04367   2.04543   2.05771
 Alpha virt. eigenvalues --    2.09949   2.12413   2.13091   2.14051   2.15553
 Alpha virt. eigenvalues --    2.18362   2.21550   2.21772   2.23012   2.24808
 Alpha virt. eigenvalues --    2.26259   2.26310   2.27132   2.28323   2.32755
 Alpha virt. eigenvalues --    2.33214   2.34488   2.36115   2.36382   2.39420
 Alpha virt. eigenvalues --    2.40148   2.42886   2.43503   2.43662   2.44560
 Alpha virt. eigenvalues --    2.45907   2.48199   2.57292   2.57467   2.58269
 Alpha virt. eigenvalues --    2.58537   2.59522   2.60159   2.67570   2.68250
 Alpha virt. eigenvalues --    2.68298   2.70359   2.77477   2.78115   2.80557
 Alpha virt. eigenvalues --    2.81290   2.83513   2.91600   2.91879   2.92123
 Alpha virt. eigenvalues --    2.92476   2.95960   2.99160   3.00006   3.04696
 Alpha virt. eigenvalues --    3.04842   3.06830   3.10630   3.14485   3.19223
 Alpha virt. eigenvalues --    3.23663   3.25935   3.28168   3.43108   3.52802
 Alpha virt. eigenvalues --    3.76899   4.13928   4.29967   4.38372   4.47918
 Alpha virt. eigenvalues --    4.50631   4.52829   4.56246   4.63438   4.71829
 Alpha virt. eigenvalues --    4.72699   4.76701   4.80509   4.88800   5.00366
 Alpha virt. eigenvalues --    5.08895
          Condensed to atoms (all electrons):
               1          2          3          4          5          6
     1  C    5.084713   0.352381  -0.057475   0.395360   0.396182  -0.043649
     2  C    0.352381   5.060530   0.340573  -0.042255  -0.041881   0.398961
     3  C   -0.057475   0.340573   5.098152  -0.002917  -0.002909  -0.040153
     4  H    0.395360  -0.042255  -0.002917   0.572205  -0.031765  -0.003005
     5  H    0.396182  -0.041881  -0.002909  -0.031765   0.565295   0.004571
     6  H   -0.043649   0.398961  -0.040153  -0.003005   0.004571   0.565749
     7  H   -0.043396   0.399300  -0.039930   0.004594  -0.002992  -0.031632
     8  H   -0.003726  -0.038803   0.391183   0.000159   0.002636   0.004236
     9  H   -0.003771  -0.038995   0.390808   0.002658   0.000159  -0.002909
    10  H    0.004395  -0.035835   0.394046  -0.000059  -0.000058  -0.002498
    11  C    0.355779  -0.051978   0.004071  -0.041819  -0.041339  -0.003118
    12  C   -0.052017   0.003942  -0.000085  -0.003139  -0.003025  -0.000064
    13  C    0.004053  -0.000084   0.000001  -0.000054  -0.000053  -0.000001
    14  H   -0.042195  -0.003353  -0.000052  -0.002837   0.004496   0.002420
    15  H   -0.041639  -0.003316  -0.000051   0.004486  -0.002819   0.000235
    16  H   -0.003296  -0.000066  -0.000000   0.002443   0.000232   0.000017
    17  H   -0.003161  -0.000068  -0.000000   0.000231   0.002366  -0.000003
    18  H   -0.000071  -0.000000  -0.000000  -0.000001   0.000013   0.000000
    19  H   -0.000074  -0.000000  -0.000000   0.000013  -0.000001  -0.000002
    20  H   -0.000082   0.000001  -0.000000   0.000001   0.000001   0.000000
    21  C    0.000000  -0.000000  -0.000000   0.000000   0.000000   0.000000
    22  C   -0.000000   0.000000  -0.000000   0.000001   0.000000  -0.000000
    23  C   -0.000001   0.000000   0.000000   0.000007   0.000004   0.000000
    24  C   -0.000000   0.000000   0.000000   0.000005   0.000002  -0.000000
    25  C   -0.000000  -0.000000   0.000000  -0.000000  -0.000000  -0.000000
    26  C   -0.000000  -0.000000  -0.000000  -0.000000  -0.000000  -0.000000
    27  H    0.000000  -0.000000   0.000000   0.000000   0.000000   0.000000
    28  H   -0.000000   0.000000   0.000000  -0.000000  -0.000000  -0.000000
    29  H    0.000000  -0.000000   0.000000   0.000000   0.000002   0.000000
    30  H   -0.000000  -0.000000  -0.000000   0.000000   0.000000   0.000000
    31  H   -0.000000   0.000000   0.000000  -0.000000   0.000000  -0.000000
    32  N   -0.000001   0.000000   0.000000  -0.000000  -0.000000  -0.000000
    33  O   -0.000000   0.000000   0.000000  -0.000000  -0.000000  -0.000000
    34  O   -0.000000  -0.000000   0.000000  -0.000000   0.000000   0.000000
               7          8          9         10         11         12
     1  C   -0.043396  -0.003726  -0.003771   0.004395   0.355779  -0.052017
     2  C    0.399300  -0.038803  -0.038995  -0.035835  -0.051978   0.003942
     3  C   -0.039930   0.391183   0.390808   0.394046   0.004071  -0.000085
     4  H    0.004594   0.000159   0.002658  -0.000059  -0.041819  -0.003139
     5  H   -0.002992   0.002636   0.000159  -0.000058  -0.041339  -0.003025
     6  H   -0.031632   0.004236  -0.002909  -0.002498  -0.003118  -0.000064
     7  H    0.562913  -0.002898   0.004236  -0.002497  -0.003121  -0.000063
     8  H   -0.002898   0.549406  -0.029379  -0.027547  -0.000071  -0.000001
     9  H    0.004236  -0.029379   0.552508  -0.027729  -0.000071  -0.000001
    10  H   -0.002497  -0.027547  -0.027729   0.538404  -0.000087   0.000001
    11  C   -0.003121  -0.000071  -0.000071  -0.000087   5.085783   0.349810
    12  C   -0.000063  -0.000001  -0.000001   0.000001   0.349810   5.071523
    13  C   -0.000001  -0.000000  -0.000000  -0.000000  -0.057751   0.339766
    14  H    0.000235  -0.000001   0.000013   0.000001   0.395536  -0.041771
    15  H    0.002400   0.000013  -0.000001   0.000001   0.396310  -0.041258
    16  H   -0.000003   0.000000  -0.000002   0.000000  -0.044260   0.396729
    17  H    0.000016  -0.000002   0.000000   0.000000  -0.043353   0.398505
    18  H   -0.000002   0.000000  -0.000000  -0.000000  -0.003734  -0.039084
    19  H    0.000000  -0.000000   0.000000  -0.000000  -0.003819  -0.040125
    20  H    0.000000  -0.000000  -0.000000   0.000000   0.004256  -0.033648
    21  C   -0.000000   0.000000  -0.000000  -0.000000   0.000000   0.000001
    22  C   -0.000000  -0.000000  -0.000000   0.000000   0.000000   0.000001
    23  C   -0.000000  -0.000000  -0.000000   0.000000  -0.000002   0.000019
    24  C    0.000000  -0.000000  -0.000000   0.000000  -0.000008  -0.000029
    25  C    0.000000  -0.000000   0.000000  -0.000000   0.000001  -0.000115
    26  C    0.000000   0.000000   0.000000  -0.000000   0.000000  -0.000008
    27  H    0.000000   0.000000   0.000000  -0.000000  -0.000000   0.000000
    28  H   -0.000000  -0.000000  -0.000000   0.000000   0.000000  -0.000000
    29  H    0.000000   0.000000   0.000000  -0.000000  -0.000000   0.000002
    30  H    0.000000   0.000000   0.000000  -0.000000   0.000000   0.000008
    31  H   -0.000000  -0.000000  -0.000000   0.000000  -0.000000  -0.000000
    32  N   -0.000000   0.000000  -0.000000  -0.000000   0.000009  -0.000181
    33  O    0.000000  -0.000000   0.000000  -0.000000   0.000018   0.001648
    34  O   -0.000000   0.000000  -0.000000   0.000000  -0.000006  -0.000779
              13         14         15         16         17         18
     1  C    0.004053  -0.042195  -0.041639  -0.003296  -0.003161  -0.000071
     2  C   -0.000084  -0.003353  -0.003316  -0.000066  -0.000068  -0.000000
     3  C    0.000001  -0.000052  -0.000051  -0.000000  -0.000000  -0.000000
     4  H   -0.000054  -0.002837   0.004486   0.002443   0.000231  -0.000001
     5  H   -0.000053   0.004496  -0.002819   0.000232   0.002366   0.000013
     6  H   -0.000001   0.002420   0.000235   0.000017  -0.000003   0.000000
     7  H   -0.000001   0.000235   0.002400  -0.000003   0.000016  -0.000002
     8  H   -0.000000  -0.000001   0.000013   0.000000  -0.000002   0.000000
     9  H   -0.000000   0.000013  -0.000001  -0.000002   0.000000  -0.000000
    10  H   -0.000000   0.000001   0.000001   0.000000   0.000000  -0.000000
    11  C   -0.057751   0.395536   0.396310  -0.044260  -0.043353  -0.003734
    12  C    0.339766  -0.041771  -0.041258   0.396729   0.398505  -0.039084
    13  C    5.107431  -0.002720  -0.002794  -0.040016  -0.037773   0.391053
    14  H   -0.002720   0.571243  -0.031689  -0.003101   0.004467   0.000157
    15  H   -0.002794  -0.031689   0.565220   0.004619  -0.002998   0.002613
    16  H   -0.040016  -0.003101   0.004619   0.576943  -0.032675   0.004269
    17  H   -0.037773   0.004467  -0.002998  -0.032675   0.551458  -0.002975
    18  H    0.391053   0.000157   0.002613   0.004269  -0.002975   0.549794
    19  H    0.388706   0.002652   0.000155  -0.003026   0.004174  -0.029984
    20  H    0.393669  -0.000064  -0.000056  -0.002392  -0.002637  -0.025552
    21  C   -0.000000   0.000000   0.000000  -0.000003   0.000000   0.000000
    22  C    0.000000  -0.000000  -0.000000  -0.000015   0.000000  -0.000000
    23  C    0.000001   0.000000  -0.000000  -0.000014  -0.000013  -0.000000
    24  C   -0.000018   0.000000   0.000000   0.000702   0.000169   0.000000
    25  C    0.000009  -0.000000  -0.000000   0.000617  -0.000068   0.000000
    26  C    0.000000  -0.000000  -0.000000   0.000017  -0.000000  -0.000000
    27  H   -0.000000   0.000000   0.000000   0.000000   0.000000   0.000000
    28  H    0.000000  -0.000000  -0.000000   0.000000  -0.000000   0.000000
    29  H   -0.000000   0.000000   0.000000   0.000001   0.000008  -0.000000
    30  H    0.000005   0.000000   0.000000   0.000042  -0.000000  -0.000000
    31  H    0.000000   0.000000  -0.000000  -0.000000  -0.000000   0.000000
    32  N    0.000112  -0.000000   0.000000  -0.000062  -0.000163   0.000000
    33  O   -0.001597  -0.000000  -0.000000   0.000115  -0.000955   0.000007
    34  O    0.000031  -0.000000  -0.000000  -0.000062   0.002292  -0.000001
              19         20         21         22         23         24
     1  C   -0.000074  -0.000082   0.000000  -0.000000  -0.000001  -0.000000
     2  C   -0.000000   0.000001  -0.000000   0.000000   0.000000   0.000000
     3  C   -0.000000  -0.000000  -0.000000  -0.000000   0.000000   0.000000
     4  H    0.000013   0.000001   0.000000   0.000001   0.000007   0.000005
     5  H   -0.000001   0.000001   0.000000   0.000000   0.000004   0.000002
     6  H   -0.000002   0.000000   0.000000  -0.000000   0.000000  -0.000000
     7  H    0.000000   0.000000  -0.000000  -0.000000  -0.000000   0.000000
     8  H   -0.000000  -0.000000   0.000000  -0.000000  -0.000000  -0.000000
     9  H    0.000000  -0.000000  -0.000000  -0.000000  -0.000000  -0.000000
    10  H   -0.000000   0.000000  -0.000000   0.000000   0.000000   0.000000
    11  C   -0.003819   0.004256   0.000000   0.000000  -0.000002  -0.000008
    12  C   -0.040125  -0.033648   0.000001   0.000001   0.000019  -0.000029
    13  C    0.388706   0.393669  -0.000000   0.000000   0.000001  -0.000018
    14  H    0.002652  -0.000064   0.000000  -0.000000   0.000000   0.000000
    15  H    0.000155  -0.000056   0.000000  -0.000000  -0.000000   0.000000
    16  H   -0.003026  -0.002392  -0.000003  -0.000015  -0.000014   0.000702
    17  H    0.004174  -0.002637   0.000000   0.000000  -0.000013   0.000169
    18  H   -0.029984  -0.025552   0.000000  -0.000000  -0.000000   0.000000
    19  H    0.561994  -0.026875   0.000000   0.000000  -0.000000   0.000001
    20  H   -0.026875   0.508295   0.000000  -0.000000  -0.000001   0.000020
    21  C    0.000000   0.000000   4.875717   0.542595  -0.045845  -0.028418
    22  C    0.000000  -0.000000   0.542595   4.931881   0.523126  -0.040212
    23  C   -0.000000  -0.000001  -0.045845   0.523126   4.917805   0.549079
    24  C    0.000001   0.000020  -0.028418  -0.040212   0.549079   4.815435
    25  C   -0.000001  -0.000005  -0.045859  -0.030054  -0.052938   0.548240
    26  C   -0.000000   0.000000   0.542591  -0.043892  -0.030019  -0.040352
    27  H    0.000000   0.000000   0.381309  -0.027958   0.002170   0.000220
    28  H   -0.000000  -0.000000  -0.027659   0.382549  -0.027296   0.001556
    29  H    0.000000  -0.000000   0.001923  -0.024001   0.368494  -0.019666
    30  H   -0.000000   0.000021   0.001917  -0.000057   0.002552  -0.019619
    31  H   -0.000000  -0.000000  -0.027650   0.002328   0.000205   0.001549
    32  N   -0.000001  -0.000078   0.000012   0.001496  -0.044397   0.245275
    33  O    0.000015   0.003444  -0.000003  -0.000029   0.003678  -0.086913
    34  O   -0.000000  -0.000020  -0.000003   0.000766   0.003891  -0.086972
              25         26         27         28         29         30
     1  C   -0.000000  -0.000000   0.000000  -0.000000   0.000000  -0.000000
     2  C   -0.000000  -0.000000  -0.000000   0.000000  -0.000000  -0.000000
     3  C    0.000000  -0.000000   0.000000   0.000000   0.000000  -0.000000
     4  H   -0.000000  -0.000000   0.000000  -0.000000   0.000000   0.000000
     5  H   -0.000000  -0.000000   0.000000  -0.000000   0.000002   0.000000
     6  H   -0.000000  -0.000000   0.000000  -0.000000   0.000000   0.000000
     7  H    0.000000   0.000000   0.000000  -0.000000   0.000000   0.000000
     8  H   -0.000000   0.000000   0.000000  -0.000000   0.000000   0.000000
     9  H    0.000000   0.000000   0.000000  -0.000000   0.000000   0.000000
    10  H   -0.000000  -0.000000  -0.000000   0.000000  -0.000000  -0.000000
    11  C    0.000001   0.000000  -0.000000   0.000000  -0.000000   0.000000
    12  C   -0.000115  -0.000008   0.000000  -0.000000   0.000002   0.000008
    13  C    0.000009   0.000000  -0.000000   0.000000  -0.000000   0.000005
    14  H   -0.000000  -0.000000   0.000000  -0.000000   0.000000   0.000000
    15  H   -0.000000  -0.000000   0.000000  -0.000000   0.000000   0.000000
    16  H    0.000617   0.000017   0.000000   0.000000   0.000001   0.000042
    17  H   -0.000068  -0.000000   0.000000  -0.000000   0.000008  -0.000000
    18  H    0.000000  -0.000000   0.000000   0.000000  -0.000000  -0.000000
    19  H   -0.000001  -0.000000   0.000000  -0.000000   0.000000  -0.000000
    20  H   -0.000005   0.000000   0.000000  -0.000000  -0.000000   0.000021
    21  C   -0.045859   0.542591   0.381309  -0.027659   0.001923   0.001917
    22  C   -0.030054  -0.043892  -0.027958   0.382549  -0.024001  -0.000057
    23  C   -0.052938  -0.030019   0.002170  -0.027296   0.368494   0.002552
    24  C    0.548240  -0.040352   0.000220   0.001556  -0.019666  -0.019619
    25  C    4.919192   0.523003   0.002172   0.000205   0.002560   0.368486
    26  C    0.523003   4.932339  -0.027982   0.002328  -0.000059  -0.024006
    27  H    0.002172  -0.027982   0.446678  -0.001192  -0.000071  -0.000071
    28  H    0.000205   0.002328  -0.001192   0.446891  -0.001108   0.000007
    29  H    0.002560  -0.000059  -0.000071  -0.001108   0.392562  -0.000075
    30  H    0.368486  -0.024006  -0.000071   0.000007  -0.000075   0.392437
    31  H   -0.027320   0.382557  -0.001192  -0.000093   0.000007  -0.001105
    32  N   -0.044499   0.001500   0.000002  -0.000049  -0.005347  -0.005318
    33  O    0.003943   0.000768   0.000000   0.000000   0.000048   0.008926
    34  O    0.003692  -0.000029   0.000000  -0.000001   0.008989   0.000047
              31         32         33         34
     1  C   -0.000000  -0.000001  -0.000000  -0.000000
     2  C    0.000000   0.000000   0.000000  -0.000000
     3  C    0.000000   0.000000   0.000000   0.000000
     4  H   -0.000000  -0.000000  -0.000000  -0.000000
     5  H    0.000000  -0.000000  -0.000000   0.000000
     6  H   -0.000000  -0.000000  -0.000000   0.000000
     7  H   -0.000000  -0.000000   0.000000  -0.000000
     8  H   -0.000000   0.000000  -0.000000   0.000000
     9  H   -0.000000  -0.000000   0.000000  -0.000000
    10  H    0.000000  -0.000000  -0.000000   0.000000
    11  C   -0.000000   0.000009   0.000018  -0.000006
    12  C   -0.000000  -0.000181   0.001648  -0.000779
    13  C    0.000000   0.000112  -0.001597   0.000031
    14  H    0.000000  -0.000000  -0.000000  -0.000000
    15  H   -0.000000   0.000000  -0.000000  -0.000000
    16  H   -0.000000  -0.000062   0.000115  -0.000062
    17  H   -0.000000  -0.000163  -0.000955   0.002292
    18  H    0.000000   0.000000   0.000007  -0.000001
    19  H   -0.000000  -0.000001   0.000015  -0.000000
    20  H   -0.000000  -0.000078   0.003444  -0.000020
    21  C   -0.027650   0.000012  -0.000003  -0.000003
    22  C    0.002328   0.001496  -0.000029   0.000766
    23  C    0.000205  -0.044397   0.003678   0.003891
    24  C    0.001549   0.245275  -0.086913  -0.086972
    25  C   -0.027320  -0.044499   0.003943   0.003692
    26  C    0.382557   0.001500   0.000768  -0.000029
    27  H   -0.001192   0.000002   0.000000   0.000000
    28  H   -0.000093  -0.000049   0.000000  -0.000001
    29  H    0.000007  -0.005347   0.000048   0.008989
    30  H   -0.001105  -0.005318   0.008926   0.000047
    31  H    0.447022  -0.000049  -0.000001   0.000000
    32  N   -0.000049   5.742619   0.308815   0.309683
    33  O   -0.000001   0.308815   8.304385  -0.086985
    34  O    0.000000   0.309683  -0.086985   8.304820
 Mulliken charges:
               1
     1  C   -0.298309
     2  C   -0.299054
     3  C   -0.475260
     4  H    0.145690
     5  H    0.150883
     6  H    0.150844
     7  H    0.152839
     8  H    0.154795
     9  H    0.152475
    10  H    0.159462
    11  C   -0.297035
    12  C   -0.306564
    13  C   -0.481976
    14  H    0.146561
    15  H    0.150570
    16  H    0.142248
    17  H    0.163155
    18  H    0.153498
    19  H    0.146197
    20  H    0.181701
    21  C   -0.170626
    22  C   -0.218525
    23  C   -0.170505
    24  C    0.159954
    25  C   -0.171262
    26  C   -0.218756
    27  H    0.225915
    28  H    0.223863
    29  H    0.275731
    30  H    0.275803
    31  H    0.223743
    32  N    0.490623
    33  O   -0.459325
    34  O   -0.459353
 Sum of Mulliken charges =  -0.00000
 Mulliken charges with hydrogens summed into heavy atoms:
               1
     1  C   -0.001736
     2  C    0.004629
     3  C   -0.008529
    11  C    0.000096
    12  C   -0.001161
    13  C   -0.000579
    21  C    0.055289
    22  C    0.005337
    23  C    0.105226
    24  C    0.159954
    25  C    0.104541
    26  C    0.004987
    32  N    0.490623
    33  O   -0.459325
    34  O   -0.459353
 Electronic spatial extent (au):  <R**2>=           5213.8203
 Charge=             -0.0000 electrons
 Dipole moment (field-independent basis, Debye):
    X=              1.7380    Y=             -4.3260    Z=             -2.1970  Tot=              5.1538
 Quadrupole moment (field-independent basis, Debye-Ang):
   XX=            -88.8129   YY=            -94.9463   ZZ=            -92.0921
   XY=            -10.0687   XZ=             -6.2768   YZ=             -2.9355
 Traceless Quadrupole moment (field-independent basis, Debye-Ang):
   XX=              3.1376   YY=             -2.9959   ZZ=             -0.1417
   XY=            -10.0687   XZ=             -6.2768   YZ=             -2.9355
 Octapole moment (field-independent basis, Debye-Ang**2):
  XXX=             26.1005  YYY=            -25.6278  ZZZ=             -6.9418  XYY=             19.4639
  XXY=            -12.4523  XXZ=            -12.7478  XZZ=             15.1464  YZZ=             -8.4494
  YYZ=             -2.1489  XYZ=             -3.5964
 Hexadecapole moment (field-independent basis, Debye-Ang**3):
 XXXX=          -4775.2887 YYYY=          -1810.1058 ZZZZ=           -622.2858 XXXY=            -12.0354
 XXXZ=            -47.5927 YYYX=            -91.2094 YYYZ=             20.0565 ZZZX=            -29.5696
 ZZZY=             -3.4023 XXYY=          -1059.6561 XXZZ=           -842.0959 YYZZ=           -401.2724
 XXYZ=             30.2876 YYXZ=            -17.6884 ZZXY=            -20.2254
 N-N= 9.456605917916D+02 E-N=-3.454639527968D+03  KE= 6.679550109101D+02
 Leave Link  601 at Thu May  6 04:06:33 2021, MaxMem=   524288000 cpu:               0.5 elap:               0.5
 (Enter /opt/gaussian/g16_legacy/l9999.exe)
 1\1\GINC-TRUENO90\SP\RMP2-FC\6-31G(d)\C12H19N1O2\JRAMOS\06-May-2021\0\
 \#p 6-31g* mp2\\Input file generated by CHIRIPA (05-May-2021 14:53:11)
 \\0,1\C,0,-0.666,-0.374,0.\C,0,-1.882,0.553,0.\C,0,-3.207,-0.21,0.\H,0
 ,-0.713,-1.03,-0.88\H,0,-0.713,-1.029,0.881\H,0,-1.832,1.207,-0.88\H,0
 ,-1.832,1.207,0.88\H,0,-3.283,-0.85,0.885\H,0,-3.283,-0.85,-0.885\H,0,
 -4.063,0.472,0.\C,0,0.666,0.374,0.\C,0,1.882,-0.553,0.\C,0,3.207,0.21,
 0.\H,0,0.713,1.029,-0.881\H,0,0.713,1.03,0.88\H,0,1.832,-1.207,-0.88\H
 ,0,1.832,-1.207,0.88\H,0,3.283,0.85,0.885\H,0,3.283,0.85,-0.885\H,0,4.
 063,-0.472,0.\C,0,1.306702,-6.066479,-2.479201\C,0,0.794314,-6.120802,
 -1.178806\C,0,1.421234,-5.427585,-0.139109\C,0,2.563825,-4.686512,-0.4
 36746\C,0,3.098526,-4.612731,-1.722025\C,0,2.455148,-5.313944,-2.74619
 \H,0,0.813303,-6.608093,-3.280829\H,0,-0.097433,-6.704427,-0.968533\H,
 0,1.04591,-5.452294,0.876735\H,0,3.989057,-4.022469,-1.900809\H,0,2.85
 5314,-5.269938,-3.755138\N,0,3.236229,-3.948402,0.655712\O,0,4.241508,
 -3.302672,0.367469\O,0,2.745248,-4.029577,1.779539\\Version=EM64L-G16R
 evA.03\State=1-A\HF=-669.5365453\MP2=-671.6293748\RMSD=6.865e-09\PG=C0
 1 [X(C12H19N1O2)]\\@


 THESE ARE THE TIMES THAT TRY MENS SOULS.
 THE SUMMER SOLDIER AND THE SUNSHINE PATRIOT WILL IN THIS CRISIS,
 SHRINK FROM THE SERVICE OF HIS COUNTRY.  BUT HE THAT STANDS NOW,
 DESERVES THE LOVE AND THANKS OF MAN AND WOMAN.
 TYRANNY, LIKE HELL, IS NOT EASILY CONQUERED,
 YET WE HAVE THIS CONSOLATION WITH US,
 THAT THE HARDER THE CONFLICT, THE MORE GLORIOUS THE TRIUMPH.
 WHAT WE OBTAIN TOO CHEAP, WE ESTEEM TOO LIGHTLY, 
 'TIS DEARNESS ONLY THAT GIVES EVERYTHING ITS VALUE.

                                              -- TOM PAINE
 Job cpu time:       0 days  0 hours  5 minutes 18.3 seconds.
 Elapsed time:       0 days  0 hours  2 minutes 44.5 seconds.
 File lengths (MBytes):  RWF=     43 Int=      0 D2E=      0 Chk=      6 Scr=      1
 Normal termination of Gaussian 16 at Thu May  6 04:06:34 2021.
