 Entering Gaussian System, Link 0=/opt/gaussian/g16_legacy/g16
 Input=gaussian_03261_2_2.com
 Output=gaussian_03261_2_2.log
 Initial command:
 /opt/gaussian/g16_legacy/l1.exe "/scratch-local/jramos/2588643/Gau-31264.inp" -scrdir="/scratch-local/jramos/2588643/"
 Entering Link 1 = /opt/gaussian/g16_legacy/l1.exe PID=     31265.
  
 Copyright (c) 1988,1990,1992,1993,1995,1998,2003,2009,2016,
            Gaussian, Inc.  All Rights Reserved.
  
 This is part of the Gaussian(R) 16 program.  It is based on
 the Gaussian(R) 09 system (copyright 2009, Gaussian, Inc.),
 the Gaussian(R) 03 system (copyright 2003, Gaussian, Inc.),
 the Gaussian(R) 98 system (copyright 1998, Gaussian, Inc.),
 the Gaussian(R) 94 system (copyright 1995, Gaussian, Inc.),
 the Gaussian 92(TM) system (copyright 1992, Gaussian, Inc.),
 the Gaussian 90(TM) system (copyright 1990, Gaussian, Inc.),
 the Gaussian 88(TM) system (copyright 1988, Gaussian, Inc.),
 the Gaussian 86(TM) system (copyright 1986, Carnegie Mellon
 University), and the Gaussian 82(TM) system (copyright 1983,
 Carnegie Mellon University). Gaussian is a federally registered
 trademark of Gaussian, Inc.
  
 This software contains proprietary and confidential information,
 including trade secrets, belonging to Gaussian, Inc.
  
 This software is provided under written license and may be
 used, copied, transmitted, or stored only in accord with that
 written license.
  
 The following legend is applicable only to US Government
 contracts under FAR:
  
                    RESTRICTED RIGHTS LEGEND
  
 Use, reproduction and disclosure by the US Government is
 subject to restrictions as set forth in subparagraphs (a)
 and (c) of the Commercial Computer Software - Restricted
 Rights clause in FAR 52.227-19.
  
 Gaussian, Inc.
 340 Quinnipiac St., Bldg. 40, Wallingford CT 06492
  
  
 ---------------------------------------------------------------
 Warning -- This program may not be used in any manner that
 competes with the business of Gaussian, Inc. or will provide
 assistance to any competitor of Gaussian, Inc.  The licensee
 of this program is prohibited from giving any competitor of
 Gaussian, Inc. access to this program.  By using this program,
 the user acknowledges that Gaussian, Inc. is engaged in the
 business of creating and licensing software in the field of
 computational chemistry and represents and warrants to the
 licensee that it is not a competitor of Gaussian, Inc. and that
 it will not use this program in any manner prohibited above.
 ---------------------------------------------------------------
  

 Cite this work as:
 Gaussian 16, Revision A.03,
 M. J. Frisch, G. W. Trucks, H. B. Schlegel, G. E. Scuseria, 
 M. A. Robb, J. R. Cheeseman, G. Scalmani, V. Barone, 
 G. A. Petersson, H. Nakatsuji, X. Li, M. Caricato, A. V. Marenich, 
 J. Bloino, B. G. Janesko, R. Gomperts, B. Mennucci, H. P. Hratchian, 
 J. V. Ortiz, A. F. Izmaylov, J. L. Sonnenberg, D. Williams-Young, 
 F. Ding, F. Lipparini, F. Egidi, J. Goings, B. Peng, A. Petrone, 
 T. Henderson, D. Ranasinghe, V. G. Zakrzewski, J. Gao, N. Rega, 
 G. Zheng, W. Liang, M. Hada, M. Ehara, K. Toyota, R. Fukuda, 
 J. Hasegawa, M. Ishida, T. Nakajima, Y. Honda, O. Kitao, H. Nakai, 
 T. Vreven, K. Throssell, J. A. Montgomery, Jr., J. E. Peralta, 
 F. Ogliaro, M. J. Bearpark, J. J. Heyd, E. N. Brothers, K. N. Kudin, 
 V. N. Staroverov, T. A. Keith, R. Kobayashi, J. Normand, 
 K. Raghavachari, A. P. Rendell, J. C. Burant, S. S. Iyengar, 
 J. Tomasi, M. Cossi, J. M. Millam, M. Klene, C. Adamo, R. Cammi, 
 J. W. Ochterski, R. L. Martin, K. Morokuma, O. Farkas, 
 J. B. Foresman, and D. J. Fox, Gaussian, Inc., Wallingford CT, 2016.
 
 ******************************************
 Gaussian 16:  EM64L-G16RevA.03 25-Dec-2016
                 5-May-2021 
 ******************************************
 %chk=gaussian_03261_2_2.chk
 %nproc=2
 Will use up to    2 processors via shared memory.
 %mem=4000Mb
 -------------
 #p 6-31g* mp2
 -------------
 1/38=1,172=1/1;
 2/12=2,17=6,18=5,40=1/2;
 3/5=1,6=6,7=1,11=9,25=1,30=1/1,2,3;
 4//1;
 5/5=2,38=5/2;
 8/10=2/1;
 9/16=-3/6;
 6/7=2,8=2,9=2,10=2/1;
 99/5=1,9=1/99;
 Leave Link    1 at Wed May  5 22:43:41 2021, MaxMem=   524288000 cpu:               0.2 elap:               0.2
 (Enter /opt/gaussian/g16_legacy/l101.exe)
 ------------------------------------------------------
 Input file generated by CHIRIPA (05-May-2021 14:57:25)
 ------------------------------------------------------
 Symbolic Z-matrix:
 Charge =  0 Multiplicity = 1
 C                     1.91414   0.        0. 
 C                     1.21414   1.211     0. 
 C                    -0.18386   1.223     0. 
 C                    -0.85286   0.        0. 
 C                    -0.18386  -1.223     0. 
 C                     1.21414  -1.211     0. 
 H                     3.00014   0.        0. 
 H                     1.75514   2.153     0. 
 H                    -0.75086   2.146     0. 
 H                    -0.75086  -2.146     0. 
 H                     1.75514  -2.153     0. 
 N                    -2.33286   0.        0. 
 O                    -2.89886  -1.091     0. 
 O                    -2.89886   1.091     0. 
 C                     3.07407  -6.90859   1.69285 
 C                     4.26419  -7.19923   2.36788 
 C                     5.20248  -6.19343   2.61792 
 C                     4.91699  -4.90219   2.17691 
 C                     3.74035  -4.58116   1.50182 
 C                     2.8164   -5.60278   1.26273 
 H                     2.35076  -7.69606   1.50286 
 H                     4.46696  -8.21243   2.70307 
 H                     6.13186  -6.39068   3.13828 
 H                     3.56625  -3.56163   1.17986 
 H                     1.89299  -5.37416   0.73826 
 N                     5.90272  -3.82902   2.43583 
 O                     5.62753  -2.69947   2.03702 
 O                     6.93185  -4.13773   3.03266 
 
 ITRead=  0  0  0  0  0  0  0  0  0  0  0  0  0  0  0  0  0  0  0  0
 ITRead=  0  0  0  0  0  0  0  0
 MicOpt= -1 -1 -1 -1 -1 -1 -1 -1 -1 -1 -1 -1 -1 -1 -1 -1 -1 -1 -1 -1
 MicOpt= -1 -1 -1 -1 -1 -1 -1 -1
 NAtoms=     28 NQM=       28 NQMF=       0 NMMI=      0 NMMIF=      0
                NMic=       0 NMicF=      0.
                    Isotopes and Nuclear Properties:
 (Nuclear quadrupole moments (NQMom) in fm**2, nuclear magnetic moments (NMagM)
  in nuclear magnetons)

  Atom         1           2           3           4           5           6           7           8           9          10
 IAtWgt=          12          12          12          12          12          12           1           1           1           1
 AtmWgt=  12.0000000  12.0000000  12.0000000  12.0000000  12.0000000  12.0000000   1.0078250   1.0078250   1.0078250   1.0078250
 NucSpn=           0           0           0           0           0           0           1           1           1           1
 AtZEff=  -0.0000000  -0.0000000  -0.0000000  -0.0000000  -0.0000000  -0.0000000  -0.0000000  -0.0000000  -0.0000000  -0.0000000
 NQMom=    0.0000000   0.0000000   0.0000000   0.0000000   0.0000000   0.0000000   0.0000000   0.0000000   0.0000000   0.0000000
 NMagM=    0.0000000   0.0000000   0.0000000   0.0000000   0.0000000   0.0000000   2.7928460   2.7928460   2.7928460   2.7928460
 AtZNuc=   6.0000000   6.0000000   6.0000000   6.0000000   6.0000000   6.0000000   1.0000000   1.0000000   1.0000000   1.0000000

  Atom        11          12          13          14          15          16          17          18          19          20
 IAtWgt=           1          14          16          16          12          12          12          12          12          12
 AtmWgt=   1.0078250  14.0030740  15.9949146  15.9949146  12.0000000  12.0000000  12.0000000  12.0000000  12.0000000  12.0000000
 NucSpn=           1           2           0           0           0           0           0           0           0           0
 AtZEff=  -0.0000000  -0.0000000  -0.0000000  -0.0000000  -0.0000000  -0.0000000  -0.0000000  -0.0000000  -0.0000000  -0.0000000
 NQMom=    0.0000000   2.0440000   0.0000000   0.0000000   0.0000000   0.0000000   0.0000000   0.0000000   0.0000000   0.0000000
 NMagM=    2.7928460   0.4037610   0.0000000   0.0000000   0.0000000   0.0000000   0.0000000   0.0000000   0.0000000   0.0000000
 AtZNuc=   1.0000000   7.0000000   8.0000000   8.0000000   6.0000000   6.0000000   6.0000000   6.0000000   6.0000000   6.0000000

  Atom        21          22          23          24          25          26          27          28
 IAtWgt=           1           1           1           1           1          14          16          16
 AtmWgt=   1.0078250   1.0078250   1.0078250   1.0078250   1.0078250  14.0030740  15.9949146  15.9949146
 NucSpn=           1           1           1           1           1           2           0           0
 AtZEff=  -0.0000000  -0.0000000  -0.0000000  -0.0000000  -0.0000000  -0.0000000  -0.0000000  -0.0000000
 NQMom=    0.0000000   0.0000000   0.0000000   0.0000000   0.0000000   2.0440000   0.0000000   0.0000000
 NMagM=    2.7928460   2.7928460   2.7928460   2.7928460   2.7928460   0.4037610   0.0000000   0.0000000
 AtZNuc=   1.0000000   1.0000000   1.0000000   1.0000000   1.0000000   7.0000000   8.0000000   8.0000000
 Leave Link  101 at Wed May  5 22:43:41 2021, MaxMem=   524288000 cpu:               0.3 elap:               0.2
 (Enter /opt/gaussian/g16_legacy/l202.exe)
                          Input orientation:                          
 ---------------------------------------------------------------------
 Center     Atomic      Atomic             Coordinates (Angstroms)
 Number     Number       Type             X           Y           Z
 ---------------------------------------------------------------------
      1          6           0        1.914143    0.000000    0.000000
      2          6           0        1.214143    1.211000    0.000000
      3          6           0       -0.183857    1.223000    0.000000
      4          6           0       -0.852857    0.000000    0.000000
      5          6           0       -0.183857   -1.223000    0.000000
      6          6           0        1.214143   -1.211000    0.000000
      7          1           0        3.000143    0.000000    0.000000
      8          1           0        1.755143    2.153000    0.000000
      9          1           0       -0.750857    2.146000    0.000000
     10          1           0       -0.750857   -2.146000    0.000000
     11          1           0        1.755143   -2.153000    0.000000
     12          7           0       -2.332857    0.000000    0.000000
     13          8           0       -2.898857   -1.091000    0.000000
     14          8           0       -2.898857    1.091000    0.000000
     15          6           0        3.074073   -6.908588    1.692845
     16          6           0        4.264190   -7.199230    2.367879
     17          6           0        5.202478   -6.193427    2.617924
     18          6           0        4.916988   -4.902190    2.176911
     19          6           0        3.740346   -4.581159    1.501824
     20          6           0        2.816404   -5.602782    1.262730
     21          1           0        2.350761   -7.696065    1.502857
     22          1           0        4.466960   -8.212433    2.703066
     23          1           0        6.131856   -6.390676    3.138277
     24          1           0        3.566250   -3.561627    1.179856
     25          1           0        1.892985   -5.374156    0.738256
     26          7           0        5.902718   -3.829017    2.435826
     27          8           0        5.627532   -2.699474    2.037024
     28          8           0        6.931854   -4.137728    3.032662
 ---------------------------------------------------------------------
                    Distance matrix (angstroms):
                    1          2          3          4          5
     1  C    0.000000
     2  C    1.398757   0.000000
     3  C    2.428443   1.398052   0.000000
     4  C    2.767000   2.395623   1.394019   0.000000
     5  C    2.428443   2.806913   2.446000   1.394019   0.000000
     6  C    1.398757   2.422000   2.806913   2.395623   1.398052
     7  H    1.086000   2.157850   3.410804   3.853000   3.410804
     8  H    2.158863   1.086299   2.150493   3.381874   3.893212
     9  H    3.421628   2.176109   1.083244   2.148423   3.416380
    10  H    3.421628   3.889817   3.416380   2.148423   1.083244
    11  H    2.158863   3.407224   3.893212   3.381874   2.150493
    12  N    4.247000   3.748030   2.472636   1.480000   2.472636
    13  O    4.935104   4.713382   3.567327   2.318706   2.718207
    14  O    4.935104   4.114750   2.718207   2.318706   3.567327
    15  C    7.206924   8.500163   8.922026   8.124967   6.767994
    16  C    7.934638   9.254275   9.814577   9.144394   7.817116
    17  C    7.484999   8.808285   9.532551   9.048710   7.782755
    18  C    6.147153   7.471352   8.262900   7.877913   6.655374
    19  C    5.155338   6.495097   7.165410   6.658829   5.378855
    20  C    5.813753   7.112619   7.562232   6.815360   5.456972
    21  H    7.853574   9.104191   9.393220   8.470606   7.112203
    22  H    9.014849  10.329011  10.861126  10.151408   8.819798
    23  H    8.275181   9.582179  10.378106   9.973752   8.743105
    24  H    4.099598   5.449994   6.192578   5.797047   4.574335
    25  H    5.424668   6.661091   6.955628   6.079985   4.700042
    26  N    6.041800   7.301901   8.276625   8.138330   7.054854
    27  O    5.022538   6.238532   7.301199   7.309724   6.332589
    28  O    7.176019   8.396318   9.411046   9.323066   8.265956
                    6          7          8          9         10
     6  C    0.000000
     7  H    2.157850   0.000000
     8  H    3.407224   2.487053   0.000000
     9  H    3.889817   4.321495   2.506010   0.000000
    10  H    2.176109   4.321495   4.976087   4.292000   0.000000
    11  H    1.086299   2.487053   4.306000   4.976087   2.506010
    12  N    3.748030   5.333000   4.620298   2.666091   2.666091
    13  O    4.114750   5.999040   5.673028   3.884852   2.393100
    14  O    4.713382   5.999040   4.773632   2.393100   3.884852
    15  C    6.227967   7.113352   9.312233   9.974035   6.338616
    16  C    7.125204   7.683331   9.968268  10.866962   7.502845
    17  C    6.898182   7.075475   9.402153  10.575527   7.660117
    18  C    5.663469   5.696025   8.031931   9.302709   6.667833
    19  C    4.471594   4.877540   7.179513   8.226849   5.325071
    20  C    4.842466   5.746252   7.929244   8.623425   5.125347
    21  H    6.753262   7.868271   9.980853  10.428080   6.533134
    22  H    8.179697   8.769388  11.050010  11.909211   8.445933
    23  H    7.801393   7.777991  10.099445  11.405935   8.673972
    24  H    3.528444   3.794433   6.109757   7.253032   4.693983
    25  H    4.282256   5.536459   7.564529   8.005477   4.237442
    26  N    5.896609   5.386981   7.675946   9.268448   7.282572
    27  O    5.083603   4.282499   6.533863   8.265103   6.718605
    28  O    7.103168   6.463450   8.693022  10.378166   8.496356
                   11         12         13         14         15
    11  H    0.000000
    12  N    4.620298   0.000000
    13  O    4.773632   1.229080   0.000000
    14  O    5.673028   1.229080   2.182000   0.000000
    15  C    5.217367   8.934719   8.507993  10.125958   0.000000
    16  C    6.112823  10.047726   9.707037  11.209104   1.398757
    17  C    5.921376  10.099175   9.925720  11.204822   2.428443
    18  C    4.721679   9.018351   8.963902  10.086858   2.767000
    19  C    3.477422   7.754114   7.649556   8.860467   2.428443
    20  C    3.823841   7.713659   7.390188   8.891873   1.398757
    21  H    5.773986   9.133689   8.569945  10.345510   1.086000
    22  H    7.167792  10.999461  10.596067  12.170279   2.158864
    23  H    6.852904  11.060782  10.931108  12.139936   3.421629
    24  H    2.580000   6.991188   7.020945   8.052118   3.421629
    25  H    3.307547   6.876359   6.469327   8.081152   2.158863
    26  N    5.093590   9.403155   9.534029  10.373405   4.247000
    27  O    4.409478   8.648955   8.912686   9.550731   4.935104
    28  O    6.319377  10.590217  10.729514  11.540343   4.935104
                   16         17         18         19         20
    16  C    0.000000
    17  C    1.398051   0.000000
    18  C    2.395622   1.394019   0.000000
    19  C    2.806913   2.446000   1.394019   0.000000
    20  C    2.422000   2.806913   2.395623   1.398052   0.000000
    21  H    2.157850   3.410804   3.853000   3.410804   2.157850
    22  H    1.086299   2.150493   3.381874   3.893212   3.407225
    23  H    2.176109   1.083244   2.148423   3.416380   3.889817
    24  H    3.889817   3.416380   2.148423   1.083244   2.176109
    25  H    3.407225   3.893212   3.381874   2.150494   1.086299
    26  N    3.748030   2.472636   1.480000   2.472636   3.748030
    27  O    4.713382   3.567327   2.318706   2.718207   4.114750
    28  O    4.114749   2.718207   2.318706   3.567327   4.713382
                   21         22         23         24         25
    21  H    0.000000
    22  H    2.487054   0.000000
    23  H    4.321495   2.506010   0.000000
    24  H    4.321495   4.976087   4.292000   0.000000
    25  H    2.487053   4.306001   4.976087   2.506010   0.000000
    26  N    5.333000   4.620298   2.666090   2.666091   4.620298
    27  O    5.999040   5.673029   3.884852   2.393100   4.773632
    28  O    5.999040   4.773631   2.393100   3.884852   5.673029
                   26         27         28
    26  N    0.000000
    27  O    1.229080   0.000000
    28  O    1.229080   2.182000   0.000000
 Stoichiometry    C12H10N2O4
 Framework group  C1[X(C12H10N2O4)]
 Deg. of freedom    78
 Full point group                 C1      NOp   1
 Largest Abelian subgroup         C1      NOp   1
 Largest concise Abelian subgroup C1      NOp   1
                         Standard orientation:                         
 ---------------------------------------------------------------------
 Center     Atomic      Atomic             Coordinates (Angstroms)
 Number     Number       Type             X           Y           Z
 ---------------------------------------------------------------------
      1          6           0       -2.010549   -1.783632    0.624084
      2          6           0       -3.286632   -2.248702    0.289654
      3          6           0       -4.308670   -1.349936   -0.030044
      4          6           0       -4.018358    0.013293   -0.005244
      5          6           0       -2.757158    0.507608    0.323872
      6          6           0       -1.750344   -0.409384    0.640097
      7          1           0       -1.222519   -2.488894    0.871084
      8          1           0       -3.491584   -3.315409    0.276399
      9          1           0       -5.305564   -1.682665   -0.292554
     10          1           0       -2.583125    1.576771    0.328463
     11          1           0       -0.760264   -0.045341    0.899442
     12          7           0       -5.092286    0.974424   -0.341856
     13          8           0       -4.810963    2.170520   -0.312729
     14          8           0       -6.195018    0.513463   -0.628446
     15          6           0        3.664744    2.643138    0.257334
     16          6           0        4.892703    2.064470   -0.079977
     17          6           0        5.002248    0.681485   -0.252893
     18          6           0        3.858437   -0.096387   -0.079968
     19          6           0        2.620965    0.450455    0.256062
     20          6           0        2.534786    1.835708    0.423984
     21          1           0        3.588723    3.718355    0.389720
     22          1           0        5.771909    2.689072   -0.210036
     23          1           0        5.940517    0.207293   -0.514065
     24          1           0        1.762076   -0.198094    0.378997
     25          1           0        1.579839    2.282363    0.685940
     26          7           0        3.962039   -1.561691   -0.260383
     27          8           0        2.939525   -2.225118   -0.102368
     28          8           0        5.063793   -2.019024   -0.556391
 ---------------------------------------------------------------------
 Rotational constants (GHZ):           0.7608813           0.1233283           0.1077106
 Leave Link  202 at Wed May  5 22:43:42 2021, MaxMem=   524288000 cpu:               0.1 elap:               0.2
 (Enter /opt/gaussian/g16_legacy/l301.exe)
 Standard basis: 6-31G(d) (6D, 7F)
 Ernie: Thresh=  0.10000D-02 Tol=  0.10000D-05 Strict=F.
 There are   290 symmetry adapted cartesian basis functions of A   symmetry.
 There are   290 symmetry adapted basis functions of A   symmetry.
   290 basis functions,   544 primitive gaussians,   290 cartesian basis functions
    64 alpha electrons       64 beta electrons
       nuclear repulsion energy      1106.7580315229 Hartrees.
 IExCor=    0 DFT=F Ex=HF Corr=None ExCW=0 ScaHFX=  1.000000
 ScaDFX=  1.000000  1.000000  1.000000  1.000000 ScalE2=  1.000000  1.000000
 IRadAn=      5 IRanWt=     -1 IRanGd=            0 ICorTp=0 IEmpDi=  4
 NAtoms=   28 NActive=   28 NUniq=   28 SFac= 1.00D+00 NAtFMM=   60 NAOKFM=F Big=F
 Integral buffers will be    131072 words long.
 Raffenetti 1 integral format.
 Two-electron integral symmetry is turned on.
 Leave Link  301 at Wed May  5 22:43:42 2021, MaxMem=   524288000 cpu:               0.3 elap:               0.3
 (Enter /opt/gaussian/g16_legacy/l302.exe)
 NPDir=0 NMtPBC=     1 NCelOv=     1 NCel=       1 NClECP=     1 NCelD=      1
         NCelK=      1 NCelE2=     1 NClLst=     1 CellRange=     0.0.
 One-electron integrals computed using PRISM.
 One-electron integral symmetry used in STVInt
 NBasis=   290 RedAO= T EigKep=  4.72D-04  NBF=   290
 NBsUse=   290 1.00D-06 EigRej= -1.00D+00 NBFU=   290
 Leave Link  302 at Wed May  5 22:43:43 2021, MaxMem=   524288000 cpu:               1.0 elap:               0.8
 (Enter /opt/gaussian/g16_legacy/l303.exe)
 DipDrv:  MaxL=1.
 Leave Link  303 at Wed May  5 22:43:43 2021, MaxMem=   524288000 cpu:               0.2 elap:               0.3
 (Enter /opt/gaussian/g16_legacy/l401.exe)
 ExpMin= 1.61D-01 ExpMax= 5.48D+03 ExpMxC= 8.25D+02 IAcc=3 IRadAn=         5 AccDes= 0.00D+00
 Harris functional with IExCor=  205 and IRadAn=       5 diagonalized for initial guess.
 HarFok:  IExCor=  205 AccDes= 0.00D+00 IRadAn=         5 IDoV= 1 UseB2=F ITyADJ=14
 ICtDFT=  3500011 ScaDFX=  1.000000  1.000000  1.000000  1.000000
 FoFCou: FMM=F IPFlag=           0 FMFlag=      100000 FMFlg1=           0
         NFxFlg=           0 DoJE=T BraDBF=F KetDBF=T FulRan=T
         wScrn=  0.000000 ICntrl=       500 IOpCl=  0 I1Cent=   200000004 NGrid=           0
         NMat0=    1 NMatS0=      1 NMatT0=    0 NMatD0=    1 NMtDS0=    0 NMtDT0=    0
 Petite list used in FoFCou.
 Harris En= -869.212066048922    
 JPrj=0 DoOrth=F DoCkMO=F.
 Leave Link  401 at Wed May  5 22:43:49 2021, MaxMem=   524288000 cpu:              11.4 elap:               6.2
 (Enter /opt/gaussian/g16_legacy/l502.exe)
 Integral symmetry usage will be decided dynamically.
 Closed shell SCF:
 Using DIIS extrapolation, IDIIS=  1040.
 NGot=   524288000 LenX=   524114954 LenY=   524030413
 Requested convergence on RMS density matrix=1.00D-08 within 128 cycles.
 Requested convergence on MAX density matrix=1.00D-06.
 Requested convergence on             energy=1.00D-06.
 No special actions if energy rises.
 Fock matrices will be formed incrementally for  20 cycles.
 Integral accuracy reduced to 1.0D-05 until final iterations.

 Cycle   1  Pass 0  IDiag  1:
 FoFJK:  IHMeth= 1 ICntrl=       0 DoSepK=F KAlg= 0 I1Cent=           0 FoldK=F
 IRaf= 660000000 NMat=       1 IRICut=       1 DoRegI=T DoRafI=F ISym2E= 0 IDoP0=0 IntGTp=1.
 FoFCou: FMM=F IPFlag=           0 FMFlag=      100000 FMFlg1=           0
         NFxFlg=           0 DoJE=F BraDBF=F KetDBF=F FulRan=T
         wScrn=  0.000000 ICntrl=         0 IOpCl=  0 I1Cent=           0 NGrid=           0
         NMat0=    1 NMatS0=      1 NMatT0=    0 NMatD0=    1 NMtDS0=    0 NMtDT0=    0
 Symmetry not used in FoFCou.
 E= -867.608621980733    
 DIIS: error= 4.67D-02 at cycle   1 NSaved=   1.
 NSaved= 1 IEnMin= 1 EnMin= -867.608621980733     IErMin= 1 ErrMin= 4.67D-02
 ErrMax= 4.67D-02  0.00D+00 EMaxC= 1.00D-01 BMatC= 1.28D+00 BMatP= 1.28D+00
 IDIUse=3 WtCom= 5.33D-01 WtEn= 4.67D-01
 Coeff-Com:  0.100D+01
 Coeff-En:   0.100D+01
 Coeff:      0.100D+01
 Gap=     0.553 Goal=   None    Shift=    0.000
 GapD=    0.553 DampG=2.000 DampE=0.500 DampFc=1.0000 IDamp=-1.
 RMSDP=4.47D-03 MaxDP=1.02D-01              OVMax= 1.52D-01

 Cycle   2  Pass 0  IDiag  1:
 RMSU=  4.36D-03    CP:  9.52D-01
 E= -868.120155000496     Delta-E=       -0.511533019763 Rises=F Damp=F
 DIIS: error= 3.61D-02 at cycle   2 NSaved=   2.
 NSaved= 2 IEnMin= 2 EnMin= -868.120155000496     IErMin= 2 ErrMin= 3.61D-02
 ErrMax= 3.61D-02  0.00D+00 EMaxC= 1.00D-01 BMatC= 2.89D-01 BMatP= 1.28D+00
 IDIUse=3 WtCom= 6.39D-01 WtEn= 3.61D-01
 Coeff-Com:  0.268D+00 0.732D+00
 Coeff-En:   0.000D+00 0.100D+01
 Coeff:      0.171D+00 0.829D+00
 Gap=     0.469 Goal=   None    Shift=    0.000
 RMSDP=1.87D-03 MaxDP=8.67D-02 DE=-5.12D-01 OVMax= 1.23D-01

 Cycle   3  Pass 0  IDiag  1:
 RMSU=  1.65D-03    CP:  9.54D-01  7.99D-01
 E= -868.285104176894     Delta-E=       -0.164949176398 Rises=F Damp=F
 DIIS: error= 1.86D-02 at cycle   3 NSaved=   3.
 NSaved= 3 IEnMin= 3 EnMin= -868.285104176894     IErMin= 3 ErrMin= 1.86D-02
 ErrMax= 1.86D-02  0.00D+00 EMaxC= 1.00D-01 BMatC= 7.04D-02 BMatP= 2.89D-01
 IDIUse=3 WtCom= 8.14D-01 WtEn= 1.86D-01
 Coeff-Com: -0.225D-01 0.314D+00 0.709D+00
 Coeff-En:   0.000D+00 0.856D-01 0.914D+00
 Coeff:     -0.184D-01 0.271D+00 0.747D+00
 Gap=     0.422 Goal=   None    Shift=    0.000
 RMSDP=7.02D-04 MaxDP=3.10D-02 DE=-1.65D-01 OVMax= 4.71D-02

 Cycle   4  Pass 0  IDiag  1:
 RMSU=  3.84D-04    CP:  9.53D-01  8.98D-01  7.60D-01
 E= -868.334977232506     Delta-E=       -0.049873055612 Rises=F Damp=F
 DIIS: error= 3.84D-03 at cycle   4 NSaved=   4.
 NSaved= 4 IEnMin= 4 EnMin= -868.334977232506     IErMin= 4 ErrMin= 3.84D-03
 ErrMax= 3.84D-03  0.00D+00 EMaxC= 1.00D-01 BMatC= 2.74D-03 BMatP= 7.04D-02
 IDIUse=3 WtCom= 9.62D-01 WtEn= 3.84D-02
 Coeff-Com: -0.124D-01 0.487D-01 0.241D+00 0.723D+00
 Coeff-En:   0.000D+00 0.000D+00 0.000D+00 0.100D+01
 Coeff:     -0.119D-01 0.468D-01 0.232D+00 0.733D+00
 Gap=     0.407 Goal=   None    Shift=    0.000
 RMSDP=1.71D-04 MaxDP=6.63D-03 DE=-4.99D-02 OVMax= 1.02D-02

 Cycle   5  Pass 0  IDiag  1:
 RMSU=  1.13D-04    CP:  9.52D-01  9.00D-01  8.26D-01  8.27D-01
 E= -868.337319199989     Delta-E=       -0.002341967483 Rises=F Damp=F
 DIIS: error= 4.75D-04 at cycle   5 NSaved=   5.
 NSaved= 5 IEnMin= 5 EnMin= -868.337319199989     IErMin= 5 ErrMin= 4.75D-04
 ErrMax= 4.75D-04  0.00D+00 EMaxC= 1.00D-01 BMatC= 8.57D-05 BMatP= 2.74D-03
 IDIUse=3 WtCom= 9.95D-01 WtEn= 4.75D-03
 Coeff-Com:  0.203D-02-0.248D-01-0.649D-01 0.130D-01 0.107D+01
 Coeff-En:   0.000D+00 0.000D+00 0.000D+00 0.000D+00 0.100D+01
 Coeff:      0.202D-02-0.247D-01-0.646D-01 0.129D-01 0.107D+01
 Gap=     0.409 Goal=   None    Shift=    0.000
 RMSDP=5.87D-05 MaxDP=1.83D-03 DE=-2.34D-03 OVMax= 4.55D-03

 Cycle   6  Pass 0  IDiag  1:
 RMSU=  2.85D-05    CP:  9.52D-01  9.04D-01  8.37D-01  9.26D-01  1.22D+00
 E= -868.337492511149     Delta-E=       -0.000173311160 Rises=F Damp=F
 DIIS: error= 2.16D-04 at cycle   6 NSaved=   6.
 NSaved= 6 IEnMin= 6 EnMin= -868.337492511149     IErMin= 6 ErrMin= 2.16D-04
 ErrMax= 2.16D-04  0.00D+00 EMaxC= 1.00D-01 BMatC= 1.00D-05 BMatP= 8.57D-05
 IDIUse=3 WtCom= 9.98D-01 WtEn= 2.16D-03
 Coeff-Com:  0.124D-02-0.736D-02-0.293D-01-0.601D-01 0.666D-01 0.103D+01
 Coeff-En:   0.000D+00 0.000D+00 0.000D+00 0.000D+00 0.000D+00 0.100D+01
 Coeff:      0.124D-02-0.735D-02-0.293D-01-0.599D-01 0.665D-01 0.103D+01
 Gap=     0.409 Goal=   None    Shift=    0.000
 RMSDP=2.30D-05 MaxDP=6.57D-04 DE=-1.73D-04 OVMax= 1.84D-03

 Cycle   7  Pass 0  IDiag  1:
 RMSU=  1.04D-05    CP:  9.52D-01  9.04D-01  8.40D-01  9.47D-01  1.36D+00
                    CP:  1.28D+00
 E= -868.337522961651     Delta-E=       -0.000030450501 Rises=F Damp=F
 DIIS: error= 1.47D-04 at cycle   7 NSaved=   7.
 NSaved= 7 IEnMin= 7 EnMin= -868.337522961651     IErMin= 7 ErrMin= 1.47D-04
 ErrMax= 1.47D-04  0.00D+00 EMaxC= 1.00D-01 BMatC= 2.01D-06 BMatP= 1.00D-05
 IDIUse=3 WtCom= 9.99D-01 WtEn= 1.47D-03
 Coeff-Com: -0.221D-03 0.304D-02 0.778D-02-0.434D-03-0.150D+00 0.179D-01
 Coeff-Com:  0.112D+01
 Coeff-En:   0.000D+00 0.000D+00 0.000D+00 0.000D+00 0.000D+00 0.000D+00
 Coeff-En:   0.100D+01
 Coeff:     -0.220D-03 0.304D-02 0.777D-02-0.433D-03-0.149D+00 0.179D-01
 Coeff:      0.112D+01
 Gap=     0.409 Goal=   None    Shift=    0.000
 RMSDP=1.12D-05 MaxDP=4.98D-04 DE=-3.05D-05 OVMax= 1.37D-03

 Cycle   8  Pass 0  IDiag  1:
 RMSU=  5.42D-06    CP:  9.52D-01  9.05D-01  8.39D-01  9.53D-01  1.39D+00
                    CP:  1.53D+00  1.40D+00
 E= -868.337531367842     Delta-E=       -0.000008406191 Rises=F Damp=F
 DIIS: error= 7.01D-05 at cycle   8 NSaved=   8.
 NSaved= 8 IEnMin= 8 EnMin= -868.337531367842     IErMin= 8 ErrMin= 7.01D-05
 ErrMax= 7.01D-05  0.00D+00 EMaxC= 1.00D-01 BMatC= 5.11D-07 BMatP= 2.01D-06
 IDIUse=1 WtCom= 1.00D+00 WtEn= 0.00D+00
 Coeff-Com: -0.308D-03 0.209D-02 0.786D-02 0.153D-01-0.298D-01-0.241D+00
 Coeff-Com:  0.704D-01 0.118D+01
 Coeff:     -0.308D-03 0.209D-02 0.786D-02 0.153D-01-0.298D-01-0.241D+00
 Coeff:      0.704D-01 0.118D+01
 Gap=     0.409 Goal=   None    Shift=    0.000
 RMSDP=6.95D-06 MaxDP=2.12D-04 DE=-8.41D-06 OVMax= 8.19D-04

 Initial convergence to 1.0D-05 achieved.  Increase integral accuracy.
 Cycle   9  Pass 1  IDiag  1:
 E= -868.337529659145     Delta-E=        0.000001708697 Rises=F Damp=F
 DIIS: error= 3.19D-05 at cycle   1 NSaved=   1.
 NSaved= 1 IEnMin= 1 EnMin= -868.337529659145     IErMin= 1 ErrMin= 3.19D-05
 ErrMax= 3.19D-05  0.00D+00 EMaxC= 1.00D-01 BMatC= 2.13D-07 BMatP= 2.13D-07
 IDIUse=1 WtCom= 1.00D+00 WtEn= 0.00D+00
 Coeff-Com:  0.100D+01
 Coeff:      0.100D+01
 Gap=     0.409 Goal=   None    Shift=    0.000
 RMSDP=6.95D-06 MaxDP=2.12D-04 DE= 1.71D-06 OVMax= 2.33D-04

 Cycle  10  Pass 1  IDiag  1:
 RMSU=  1.41D-05    CP:  1.00D+00
 E= -868.337530030185     Delta-E=       -0.000000371040 Rises=F Damp=F
 DIIS: error= 1.86D-05 at cycle   2 NSaved=   2.
 NSaved= 2 IEnMin= 2 EnMin= -868.337530030185     IErMin= 2 ErrMin= 1.86D-05
 ErrMax= 1.86D-05  0.00D+00 EMaxC= 1.00D-01 BMatC= 4.22D-08 BMatP= 2.13D-07
 IDIUse=1 WtCom= 1.00D+00 WtEn= 0.00D+00
 Coeff-Com:  0.809D-01 0.919D+00
 Coeff:      0.809D-01 0.919D+00
 Gap=     0.409 Goal=   None    Shift=    0.000
 RMSDP=1.29D-06 MaxDP=3.86D-05 DE=-3.71D-07 OVMax= 1.29D-04

 Cycle  11  Pass 1  IDiag  1:
 RMSU=  1.13D-06    CP:  1.00D+00  1.04D+00
 E= -868.337530144105     Delta-E=       -0.000000113920 Rises=F Damp=F
 DIIS: error= 1.35D-05 at cycle   3 NSaved=   3.
 NSaved= 3 IEnMin= 3 EnMin= -868.337530144105     IErMin= 3 ErrMin= 1.35D-05
 ErrMax= 1.35D-05  0.00D+00 EMaxC= 1.00D-01 BMatC= 2.15D-08 BMatP= 4.22D-08
 IDIUse=1 WtCom= 1.00D+00 WtEn= 0.00D+00
 Coeff-Com: -0.132D+00 0.296D+00 0.837D+00
 Coeff:     -0.132D+00 0.296D+00 0.837D+00
 Gap=     0.409 Goal=   None    Shift=    0.000
 RMSDP=8.34D-07 MaxDP=2.47D-05 DE=-1.14D-07 OVMax= 9.96D-05

 Cycle  12  Pass 1  IDiag  1:
 RMSU=  6.76D-07    CP:  1.00D+00  1.06D+00  1.36D+00
 E= -868.337530206655     Delta-E=       -0.000000062550 Rises=F Damp=F
 DIIS: error= 7.30D-06 at cycle   4 NSaved=   4.
 NSaved= 4 IEnMin= 4 EnMin= -868.337530206655     IErMin= 4 ErrMin= 7.30D-06
 ErrMax= 7.30D-06  0.00D+00 EMaxC= 1.00D-01 BMatC= 5.75D-09 BMatP= 2.15D-08
 IDIUse=1 WtCom= 1.00D+00 WtEn= 0.00D+00
 Coeff-Com: -0.614D-02-0.489D+00-0.214D+00 0.171D+01
 Coeff:     -0.614D-02-0.489D+00-0.214D+00 0.171D+01
 Gap=     0.409 Goal=   None    Shift=    0.000
 RMSDP=1.11D-06 MaxDP=3.23D-05 DE=-6.25D-08 OVMax= 1.36D-04

 Cycle  13  Pass 1  IDiag  1:
 RMSU=  2.30D-07    CP:  1.00D+00  1.07D+00  2.16D+00  1.88D+00
 E= -868.337530245464     Delta-E=       -0.000000038809 Rises=F Damp=F
 DIIS: error= 2.08D-06 at cycle   5 NSaved=   5.
 NSaved= 5 IEnMin= 5 EnMin= -868.337530245464     IErMin= 5 ErrMin= 2.08D-06
 ErrMax= 2.08D-06  0.00D+00 EMaxC= 1.00D-01 BMatC= 6.26D-10 BMatP= 5.75D-09
 IDIUse=1 WtCom= 1.00D+00 WtEn= 0.00D+00
 Coeff-Com:  0.144D-01-0.207D+00-0.175D+00 0.592D+00 0.776D+00
 Coeff:      0.144D-01-0.207D+00-0.175D+00 0.592D+00 0.776D+00
 Gap=     0.409 Goal=   None    Shift=    0.000
 RMSDP=2.08D-07 MaxDP=6.60D-06 DE=-3.88D-08 OVMax= 2.57D-05

 Cycle  14  Pass 1  IDiag  1:
 RMSU=  8.67D-08    CP:  1.00D+00  1.07D+00  2.30D+00  2.04D+00  1.02D+00
 E= -868.337530247146     Delta-E=       -0.000000001683 Rises=F Damp=F
 DIIS: error= 4.06D-07 at cycle   6 NSaved=   6.
 NSaved= 6 IEnMin= 6 EnMin= -868.337530247146     IErMin= 6 ErrMin= 4.06D-07
 ErrMax= 4.06D-07  0.00D+00 EMaxC= 1.00D-01 BMatC= 4.20D-11 BMatP= 6.26D-10
 IDIUse=1 WtCom= 1.00D+00 WtEn= 0.00D+00
 Coeff-Com: -0.536D-03 0.641D-01 0.362D-01-0.213D+00-0.726D-01 0.119D+01
 Coeff:     -0.536D-03 0.641D-01 0.362D-01-0.213D+00-0.726D-01 0.119D+01
 Gap=     0.409 Goal=   None    Shift=    0.000
 RMSDP=5.56D-08 MaxDP=2.42D-06 DE=-1.68D-09 OVMax= 5.83D-06

 Cycle  15  Pass 1  IDiag  1:
 RMSU=  2.89D-08    CP:  1.00D+00  1.07D+00  2.31D+00  2.06D+00  1.17D+00
                    CP:  1.29D+00
 E= -868.337530247252     Delta-E=       -0.000000000106 Rises=F Damp=F
 DIIS: error= 1.61D-07 at cycle   7 NSaved=   7.
 NSaved= 7 IEnMin= 7 EnMin= -868.337530247252     IErMin= 7 ErrMin= 1.61D-07
 ErrMax= 1.61D-07  0.00D+00 EMaxC= 1.00D-01 BMatC= 7.91D-12 BMatP= 4.20D-11
 IDIUse=1 WtCom= 1.00D+00 WtEn= 0.00D+00
 Coeff-Com: -0.284D-02 0.562D-01 0.424D-01-0.168D+00-0.162D+00 0.319D+00
 Coeff-Com:  0.915D+00
 Coeff:     -0.284D-02 0.562D-01 0.424D-01-0.168D+00-0.162D+00 0.319D+00
 Coeff:      0.915D+00
 Gap=     0.409 Goal=   None    Shift=    0.000
 RMSDP=2.18D-08 MaxDP=6.84D-07 DE=-1.06D-10 OVMax= 1.28D-06

 Cycle  16  Pass 1  IDiag  1:
 RMSU=  9.56D-09    CP:  1.00D+00  1.07D+00  2.31D+00  2.06D+00  1.21D+00
                    CP:  1.47D+00  1.22D+00
 E= -868.337530247263     Delta-E=       -0.000000000011 Rises=F Damp=F
 DIIS: error= 4.66D-08 at cycle   8 NSaved=   8.
 NSaved= 8 IEnMin= 8 EnMin= -868.337530247263     IErMin= 8 ErrMin= 4.66D-08
 ErrMax= 4.66D-08  0.00D+00 EMaxC= 1.00D-01 BMatC= 4.19D-13 BMatP= 7.91D-12
 IDIUse=1 WtCom= 1.00D+00 WtEn= 0.00D+00
 Coeff-Com: -0.754D-03 0.124D-01 0.981D-02-0.360D-01-0.411D-01 0.360D-01
 Coeff-Com:  0.256D+00 0.764D+00
 Coeff:     -0.754D-03 0.124D-01 0.981D-02-0.360D-01-0.411D-01 0.360D-01
 Coeff:      0.256D+00 0.764D+00
 Gap=     0.409 Goal=   None    Shift=    0.000
 RMSDP=2.89D-09 MaxDP=1.16D-07 DE=-1.09D-11 OVMax= 2.21D-07

 SCF Done:  E(RHF) =  -868.337530247     A.U. after   16 cycles
            NFock= 16  Conv=0.29D-08     -V/T= 2.0031
 KE= 8.656919393435D+02 PE=-4.246046948390D+03 EE= 1.405259447277D+03
 Leave Link  502 at Wed May  5 22:44:49 2021, MaxMem=   524288000 cpu:             116.5 elap:              59.5
 (Enter /opt/gaussian/g16_legacy/l801.exe)
 ExpMin= 1.61D-01 ExpMax= 5.48D+03 ExpMxC= 8.25D+02 IAcc=3 IRadAn=         5 AccDes= 0.00D+00
 HarFok:  IExCor=  205 AccDes= 0.00D+00 IRadAn=         5 IDoV=-2 UseB2=F ITyADJ=14
 ICtDFT= 12500011 ScaDFX=  1.000000  1.000000  1.000000  1.000000
 Largest valence mixing into a core orbital is  1.95D-04
 Largest core mixing into a valence orbital is  4.00D-05
 Range of M.O.s used for correlation:    19   290
 NBasis=   290 NAE=    64 NBE=    64 NFC=    18 NFV=     0
 NROrb=    272 NOA=    46 NOB=    46 NVA=   226 NVB=   226
 Leave Link  801 at Wed May  5 22:44:50 2021, MaxMem=   524288000 cpu:               1.9 elap:               1.2
 (Enter /opt/gaussian/g16_legacy/l906.exe)
 FulOut=F Deriv=F AODrv=F NAtomX=    28
   MMem=          85  MDisk=          46 MDiskD=          46
  W3Min=     3014840 MinDsk=     3114491 NBas6D=         290
 NBas2D=       42681    NTT=       42195    LW2=     2000000
    MDV=   523948564 MDiskM=       24997 NBas2p=       26345
 Fully direct method using O(OVN) memory.
 IMap=   1   2   3   4   5   6   7   8   9  10  11  12  13  14  15  16  17  18  19  20
 IMap=  21  22  23  24  25  26  27  28  29  30  31  32  33  34  35  36  37  38  39  40
 IMap=  41  42  43  44  45  46
 JobTyp=1 Pass  1:  I=   1 to  46 NPSUse=  2 ParTrn=T ParDer=T DoDerP=F.
 Spin components of T(2) and E(2):
     alpha-alpha T2 =       0.1269663916D+00 E2=     -0.3594226977D+00
     alpha-beta  T2 =       0.6475922744D+00 E2=     -0.1880556118D+01
     beta-beta   T2 =       0.1269663916D+00 E2=     -0.3594226977D+00
 The integrals were generated   1 times.
 ANorm=    0.1378957961D+01
 E2 =    -0.2599401514D+01 EUMP2 =    -0.87093693176089D+03
 Leave Link  906 at Wed May  5 22:46:13 2021, MaxMem=   524288000 cpu:             163.6 elap:              82.7
 (Enter /opt/gaussian/g16_legacy/l601.exe)
 Copying SCF densities to generalized density rwf, IOpCl= 0 IROHF=0.

 **********************************************************************

            Population analysis using the SCF density.

 **********************************************************************

 Orbital symmetries:
       Occupied  (A) (A) (A) (A) (A) (A) (A) (A) (A) (A) (A) (A)
                 (A) (A) (A) (A) (A) (A) (A) (A) (A) (A) (A) (A)
                 (A) (A) (A) (A) (A) (A) (A) (A) (A) (A) (A) (A)
                 (A) (A) (A) (A) (A) (A) (A) (A) (A) (A) (A) (A)
                 (A) (A) (A) (A) (A) (A) (A) (A) (A) (A) (A) (A)
                 (A) (A) (A) (A)
       Virtual   (A) (A) (A) (A) (A) (A) (A) (A) (A) (A) (A) (A)
                 (A) (A) (A) (A) (A) (A) (A) (A) (A) (A) (A) (A)
                 (A) (A) (A) (A) (A) (A) (A) (A) (A) (A) (A) (A)
                 (A) (A) (A) (A) (A) (A) (A) (A) (A) (A) (A) (A)
                 (A) (A) (A) (A) (A) (A) (A) (A) (A) (A) (A) (A)
                 (A) (A) (A) (A) (A) (A) (A) (A) (A) (A) (A) (A)
                 (A) (A) (A) (A) (A) (A) (A) (A) (A) (A) (A) (A)
                 (A) (A) (A) (A) (A) (A) (A) (A) (A) (A) (A) (A)
                 (A) (A) (A) (A) (A) (A) (A) (A) (A) (A) (A) (A)
                 (A) (A) (A) (A) (A) (A) (A) (A) (A) (A) (A) (A)
                 (A) (A) (A) (A) (A) (A) (A) (A) (A) (A) (A) (A)
                 (A) (A) (A) (A) (A) (A) (A) (A) (A) (A) (A) (A)
                 (A) (A) (A) (A) (A) (A) (A) (A) (A) (A) (A) (A)
                 (A) (A) (A) (A) (A) (A) (A) (A) (A) (A) (A) (A)
                 (A) (A) (A) (A) (A) (A) (A) (A) (A) (A) (A) (A)
                 (A) (A) (A) (A) (A) (A) (A) (A) (A) (A) (A) (A)
                 (A) (A) (A) (A) (A) (A) (A) (A) (A) (A) (A) (A)
                 (A) (A) (A) (A) (A) (A) (A) (A) (A) (A) (A) (A)
                 (A) (A) (A) (A) (A) (A) (A) (A) (A) (A)
 The electronic state is 1-A.
 Alpha  occ. eigenvalues --  -20.61515 -20.61481 -20.60939 -20.60925 -15.86554
 Alpha  occ. eigenvalues --  -15.85993 -11.31903 -11.31352 -11.28575 -11.28405
 Alpha  occ. eigenvalues --  -11.28148 -11.28024 -11.27904 -11.27606 -11.27520
 Alpha  occ. eigenvalues --  -11.27399 -11.27067 -11.26848  -1.60569  -1.60011
 Alpha  occ. eigenvalues --   -1.40127  -1.39565  -1.20061  -1.19534  -1.09443
 Alpha  occ. eigenvalues --   -1.08907  -1.05481  -1.04963  -0.96293  -0.95741
 Alpha  occ. eigenvalues --   -0.86869  -0.86352  -0.83142  -0.82595  -0.78211
 Alpha  occ. eigenvalues --   -0.77659  -0.72777  -0.72210  -0.71885  -0.71334
 Alpha  occ. eigenvalues --   -0.71170  -0.70580  -0.65724  -0.65503  -0.65187
 Alpha  occ. eigenvalues --   -0.64996  -0.62888  -0.62279  -0.55938  -0.55367
 Alpha  occ. eigenvalues --   -0.53778  -0.53599  -0.53255  -0.53047  -0.49541
 Alpha  occ. eigenvalues --   -0.49515  -0.48969  -0.48963  -0.45537  -0.44973
 Alpha  occ. eigenvalues --   -0.38002  -0.37466  -0.37072  -0.36569
 Alpha virt. eigenvalues --    0.04360   0.04917   0.10590   0.11058   0.15872
 Alpha virt. eigenvalues --    0.16403   0.17843   0.22165   0.24622   0.26727
 Alpha virt. eigenvalues --    0.28004   0.29338   0.30402   0.31187   0.32048
 Alpha virt. eigenvalues --    0.33620   0.34080   0.34729   0.36758   0.38279
 Alpha virt. eigenvalues --    0.42234   0.43009   0.44194   0.44685   0.45799
 Alpha virt. eigenvalues --    0.47290   0.48587   0.49363   0.50411   0.51880
 Alpha virt. eigenvalues --    0.56616   0.56836   0.66640   0.67179   0.68173
 Alpha virt. eigenvalues --    0.68814   0.70031   0.70290   0.71164   0.71784
 Alpha virt. eigenvalues --    0.77086   0.77639   0.77784   0.78074   0.78315
 Alpha virt. eigenvalues --    0.78734   0.79131   0.79211   0.79745   0.79869
 Alpha virt. eigenvalues --    0.80436   0.80695   0.81230   0.82463   0.85093
 Alpha virt. eigenvalues --    0.85699   0.86924   0.87223   0.87682   0.87919
 Alpha virt. eigenvalues --    0.92966   0.93522   0.95878   0.96497   0.99862
 Alpha virt. eigenvalues --    1.00393   1.01075   1.01696   1.03844   1.04160
 Alpha virt. eigenvalues --    1.06309   1.06525   1.07357   1.07920   1.08050
 Alpha virt. eigenvalues --    1.08427   1.10298   1.10928   1.13590   1.15222
 Alpha virt. eigenvalues --    1.15934   1.16744   1.17161   1.18631   1.19424
 Alpha virt. eigenvalues --    1.21572   1.22859   1.23212   1.23446   1.24889
 Alpha virt. eigenvalues --    1.27516   1.27579   1.28138   1.28556   1.30137
 Alpha virt. eigenvalues --    1.30560   1.31502   1.32765   1.34077   1.36942
 Alpha virt. eigenvalues --    1.39826   1.40320   1.45759   1.46366   1.46383
 Alpha virt. eigenvalues --    1.46899   1.51828   1.52380   1.52807   1.53330
 Alpha virt. eigenvalues --    1.59875   1.60532   1.64682   1.65241   1.65825
 Alpha virt. eigenvalues --    1.66440   1.66675   1.66990   1.67339   1.68253
 Alpha virt. eigenvalues --    1.71867   1.72411   1.72611   1.72760   1.73145
 Alpha virt. eigenvalues --    1.73302   1.74818   1.75339   1.96279   1.96798
 Alpha virt. eigenvalues --    1.98589   1.99072   1.99140   1.99665   2.03695
 Alpha virt. eigenvalues --    2.04104   2.04472   2.04800   2.09331   2.09895
 Alpha virt. eigenvalues --    2.11706   2.12175   2.12651   2.13510   2.20931
 Alpha virt. eigenvalues --    2.20957   2.21503   2.21520   2.24117   2.24533
 Alpha virt. eigenvalues --    2.26445   2.26987   2.32137   2.32798   2.35668
 Alpha virt. eigenvalues --    2.35964   2.36937   2.37510   2.42191   2.42597
 Alpha virt. eigenvalues --    2.42755   2.43141   2.44082   2.44435   2.44994
 Alpha virt. eigenvalues --    2.45549   2.46145   2.46698   2.57384   2.57890
 Alpha virt. eigenvalues --    2.57929   2.58431   2.58825   2.59360   2.69573
 Alpha virt. eigenvalues --    2.70175   2.80619   2.81358   2.82771   2.83326
 Alpha virt. eigenvalues --    2.91057   2.91248   2.91409   2.91781   2.91994
 Alpha virt. eigenvalues --    2.92553   2.99127   2.99746   3.03996   3.04240
 Alpha virt. eigenvalues --    3.04548   3.04639   3.06576   3.06775   3.10100
 Alpha virt. eigenvalues --    3.10635   3.22694   3.23482   3.23938   3.24392
 Alpha virt. eigenvalues --    3.26876   3.27527   3.42468   3.42926   3.52307
 Alpha virt. eigenvalues --    3.52752   3.76269   3.76816   4.12265   4.12869
 Alpha virt. eigenvalues --    4.27907   4.28509   4.37167   4.37688   4.47328
 Alpha virt. eigenvalues --    4.48063   4.50131   4.50742   4.52394   4.52774
 Alpha virt. eigenvalues --    4.71277   4.71953   4.76076   4.76564   5.08211
 Alpha virt. eigenvalues --    5.08784
          Condensed to atoms (all electrons):
               1          2          3          4          5          6
     1  C    4.875230   0.541929  -0.045208  -0.028940  -0.044597   0.542710
     2  C    0.541929   4.932858   0.521718  -0.039938  -0.030519  -0.043379
     3  C   -0.045208   0.521718   4.919453   0.548349  -0.053329  -0.030332
     4  C   -0.028940  -0.039938   0.548349   4.819436   0.549380  -0.039970
     5  C   -0.044597  -0.030519  -0.053329   0.549380   4.921013   0.521000
     6  C    0.542710  -0.043379  -0.030332  -0.039970   0.521000   4.937559
     7  H    0.380581  -0.026910   0.002138   0.000212   0.002135  -0.027373
     8  H   -0.027163   0.382464  -0.027397   0.001555   0.000209   0.002337
     9  H    0.001932  -0.023918   0.368414  -0.019693   0.002585  -0.000060
    10  H    0.001927  -0.000067   0.002608  -0.018757   0.368270  -0.024901
    11  H   -0.027898   0.002379   0.000214   0.001536  -0.028532   0.380383
    12  N    0.000010   0.001506  -0.044432   0.244483  -0.044678   0.001477
    13  O   -0.000003  -0.000028   0.003712  -0.088279   0.004189   0.000780
    14  O   -0.000003   0.000772   0.003981  -0.087839   0.003755  -0.000028
    15  C    0.000000   0.000000  -0.000000  -0.000000  -0.000000   0.000001
    16  C   -0.000000   0.000000   0.000000   0.000000   0.000000  -0.000000
    17  C    0.000000  -0.000000  -0.000000  -0.000000  -0.000000   0.000000
    18  C   -0.000000  -0.000000  -0.000000   0.000000  -0.000000   0.000008
    19  C   -0.000026   0.000000  -0.000000   0.000000   0.000007  -0.000449
    20  C    0.000001  -0.000000   0.000000   0.000000  -0.000004   0.000000
    21  H    0.000000  -0.000000  -0.000000  -0.000000  -0.000000   0.000000
    22  H   -0.000000   0.000000   0.000000  -0.000000  -0.000000   0.000000
    23  H    0.000000  -0.000000  -0.000000   0.000000  -0.000000   0.000000
    24  H    0.000089  -0.000000  -0.000000  -0.000000   0.000003   0.000517
    25  H   -0.000000   0.000000   0.000000   0.000000   0.000002   0.000023
    26  N    0.000000  -0.000000  -0.000000   0.000000  -0.000000  -0.000001
    27  O   -0.000008   0.000000   0.000000  -0.000000   0.000000   0.000008
    28  O   -0.000000   0.000000   0.000000  -0.000000   0.000000   0.000000
               7          8          9         10         11         12
     1  C    0.380581  -0.027163   0.001932   0.001927  -0.027898   0.000010
     2  C   -0.026910   0.382464  -0.023918  -0.000067   0.002379   0.001506
     3  C    0.002138  -0.027397   0.368414   0.002608   0.000214  -0.044432
     4  C    0.000212   0.001555  -0.019693  -0.018757   0.001536   0.244483
     5  C    0.002135   0.000209   0.002585   0.368270  -0.028532  -0.044678
     6  C   -0.027373   0.002337  -0.000060  -0.024901   0.380383   0.001477
     7  H    0.435868  -0.001143  -0.000069  -0.000070  -0.001259   0.000002
     8  H   -0.001143   0.443786  -0.001097   0.000007  -0.000096  -0.000049
     9  H   -0.000069  -0.001097   0.391609  -0.000076   0.000007  -0.005348
    10  H   -0.000070   0.000007  -0.000076   0.396521  -0.001010  -0.005457
    11  H   -0.001259  -0.000096   0.000007  -0.001010   0.457886  -0.000051
    12  N    0.000002  -0.000049  -0.005348  -0.005457  -0.000051   5.734297
    13  O    0.000000   0.000000   0.000047   0.009241  -0.000002   0.314793
    14  O    0.000000  -0.000001   0.008989   0.000049   0.000000   0.315199
    15  C    0.000000  -0.000000   0.000000  -0.000000  -0.000001   0.000000
    16  C   -0.000000   0.000000  -0.000000   0.000000   0.000000  -0.000000
    17  C   -0.000000   0.000000  -0.000000  -0.000000   0.000000   0.000000
    18  C   -0.000001  -0.000000   0.000000  -0.000000   0.000033   0.000000
    19  C   -0.000007   0.000000   0.000000  -0.000001   0.000512   0.000000
    20  C    0.000000  -0.000000   0.000000   0.000001  -0.000056  -0.000000
    21  H    0.000000   0.000000   0.000000  -0.000000  -0.000000   0.000000
    22  H    0.000000   0.000000   0.000000   0.000000  -0.000000   0.000000
    23  H   -0.000000   0.000000  -0.000000  -0.000000  -0.000000  -0.000000
    24  H    0.000045  -0.000000  -0.000000  -0.000002   0.001126   0.000000
    25  H   -0.000000  -0.000000   0.000000   0.000009   0.000224  -0.000000
    26  N   -0.000000   0.000000  -0.000000  -0.000000   0.000000  -0.000000
    27  O    0.000038  -0.000000   0.000000   0.000000  -0.000039   0.000000
    28  O    0.000000  -0.000000   0.000000   0.000000  -0.000000   0.000000
              13         14         15         16         17         18
     1  C   -0.000003  -0.000003   0.000000  -0.000000   0.000000  -0.000000
     2  C   -0.000028   0.000772   0.000000   0.000000  -0.000000  -0.000000
     3  C    0.003712   0.003981  -0.000000   0.000000  -0.000000  -0.000000
     4  C   -0.088279  -0.087839  -0.000000   0.000000  -0.000000   0.000000
     5  C    0.004189   0.003755  -0.000000   0.000000  -0.000000  -0.000000
     6  C    0.000780  -0.000028   0.000001  -0.000000   0.000000   0.000008
     7  H    0.000000   0.000000   0.000000  -0.000000  -0.000000  -0.000001
     8  H    0.000000  -0.000001  -0.000000   0.000000   0.000000  -0.000000
     9  H    0.000047   0.008989   0.000000  -0.000000  -0.000000   0.000000
    10  H    0.009241   0.000049  -0.000000   0.000000  -0.000000  -0.000000
    11  H   -0.000002   0.000000  -0.000001   0.000000   0.000000   0.000033
    12  N    0.314793   0.315199   0.000000  -0.000000   0.000000   0.000000
    13  O    8.305360  -0.087632   0.000000  -0.000000   0.000000   0.000000
    14  O   -0.087632   8.301926   0.000000  -0.000000   0.000000   0.000000
    15  C    0.000000   0.000000   4.873194   0.542123  -0.045320  -0.029117
    16  C   -0.000000  -0.000000   0.542123   4.932991   0.521024  -0.038929
    17  C    0.000000   0.000000  -0.045320   0.521024   4.919512   0.547836
    18  C    0.000000   0.000000  -0.029117  -0.038929   0.547836   4.817274
    19  C   -0.000000  -0.000000  -0.044506  -0.031051  -0.052854   0.547470
    20  C    0.000000   0.000000   0.542574  -0.043422  -0.030144  -0.039367
    21  H    0.000000   0.000000   0.381191  -0.027594   0.002167   0.000212
    22  H   -0.000000   0.000000  -0.027272   0.382313  -0.027100   0.001505
    23  H    0.000000   0.000000   0.001912  -0.023853   0.368308  -0.019605
    24  H    0.000000   0.000000   0.002010  -0.000096   0.002633  -0.019670
    25  H   -0.000000  -0.000000  -0.026877   0.002384   0.000182   0.001632
    26  N   -0.000000  -0.000000   0.000001   0.001552  -0.044425   0.244050
    27  O   -0.000000   0.000000  -0.000002  -0.000030   0.003769  -0.086998
    28  O    0.000000   0.000000  -0.000004   0.000771   0.003937  -0.087326
              19         20         21         22         23         24
     1  C   -0.000026   0.000001   0.000000  -0.000000   0.000000   0.000089
     2  C    0.000000  -0.000000  -0.000000   0.000000  -0.000000  -0.000000
     3  C   -0.000000   0.000000  -0.000000   0.000000  -0.000000  -0.000000
     4  C    0.000000   0.000000  -0.000000  -0.000000   0.000000  -0.000000
     5  C    0.000007  -0.000004  -0.000000  -0.000000  -0.000000   0.000003
     6  C   -0.000449   0.000000   0.000000   0.000000   0.000000   0.000517
     7  H   -0.000007   0.000000   0.000000   0.000000  -0.000000   0.000045
     8  H    0.000000  -0.000000   0.000000   0.000000   0.000000  -0.000000
     9  H    0.000000   0.000000   0.000000   0.000000  -0.000000  -0.000000
    10  H   -0.000001   0.000001  -0.000000   0.000000  -0.000000  -0.000002
    11  H    0.000512  -0.000056  -0.000000  -0.000000  -0.000000   0.001126
    12  N    0.000000  -0.000000   0.000000   0.000000  -0.000000   0.000000
    13  O   -0.000000   0.000000   0.000000  -0.000000   0.000000   0.000000
    14  O   -0.000000   0.000000   0.000000   0.000000   0.000000   0.000000
    15  C   -0.044506   0.542574   0.381191  -0.027272   0.001912   0.002010
    16  C   -0.031051  -0.043422  -0.027594   0.382313  -0.023853  -0.000096
    17  C   -0.052854  -0.030144   0.002167  -0.027100   0.368308   0.002633
    18  C    0.547470  -0.039367   0.000212   0.001505  -0.019605  -0.019670
    19  C    4.930818   0.522351   0.002163   0.000222   0.002593   0.365261
    20  C    0.522351   4.931741  -0.027871   0.002317  -0.000052  -0.025353
    21  H    0.002163  -0.027871   0.443193  -0.001167  -0.000070  -0.000071
    22  H    0.000222   0.002317  -0.001167   0.443839  -0.001080   0.000007
    23  H    0.002593  -0.000052  -0.000070  -0.001080   0.390628  -0.000077
    24  H    0.365261  -0.025353  -0.000071   0.000007  -0.000077   0.399991
    25  H   -0.029052   0.383033  -0.001212  -0.000094   0.000007  -0.001363
    26  N   -0.044201   0.001493   0.000002  -0.000049  -0.005362  -0.005675
    27  O    0.002448   0.000748   0.000000   0.000000   0.000047   0.010721
    28  O    0.003716  -0.000027   0.000000  -0.000001   0.008922   0.000059
              25         26         27         28
     1  C   -0.000000   0.000000  -0.000008  -0.000000
     2  C    0.000000  -0.000000   0.000000   0.000000
     3  C    0.000000  -0.000000   0.000000   0.000000
     4  C    0.000000   0.000000  -0.000000  -0.000000
     5  C    0.000002  -0.000000   0.000000   0.000000
     6  C    0.000023  -0.000001   0.000008   0.000000
     7  H   -0.000000  -0.000000   0.000038   0.000000
     8  H   -0.000000   0.000000  -0.000000  -0.000000
     9  H    0.000000  -0.000000   0.000000   0.000000
    10  H    0.000009  -0.000000   0.000000   0.000000
    11  H    0.000224   0.000000  -0.000039  -0.000000
    12  N   -0.000000  -0.000000   0.000000   0.000000
    13  O   -0.000000  -0.000000  -0.000000   0.000000
    14  O   -0.000000  -0.000000   0.000000   0.000000
    15  C   -0.026877   0.000001  -0.000002  -0.000004
    16  C    0.002384   0.001552  -0.000030   0.000771
    17  C    0.000182  -0.044425   0.003769   0.003937
    18  C    0.001632   0.244050  -0.086998  -0.087326
    19  C   -0.029052  -0.044201   0.002448   0.003716
    20  C    0.383033   0.001493   0.000748  -0.000027
    21  H   -0.001212   0.000002   0.000000   0.000000
    22  H   -0.000094  -0.000049   0.000000  -0.000001
    23  H    0.000007  -0.005362   0.000047   0.008922
    24  H   -0.001363  -0.005675   0.010721   0.000059
    25  H    0.451076  -0.000049  -0.000001   0.000000
    26  N   -0.000049   5.734813   0.313512   0.315742
    27  O   -0.000001   0.313512   8.308898  -0.087531
    28  O    0.000000   0.315742  -0.087531   8.298267
 Mulliken charges:
               1
     1  C   -0.170564
     2  C   -0.218865
     3  C   -0.169889
     4  C    0.158465
     5  C   -0.170888
     6  C   -0.220308
     7  H    0.235812
     8  H    0.226587
     9  H    0.276679
    10  H    0.271706
    11  H    0.214645
    12  N    0.488247
    13  O   -0.462178
    14  O   -0.459168
    15  C   -0.169906
    16  C   -0.218183
    17  C   -0.169526
    18  C    0.160994
    19  C   -0.175412
    20  C   -0.217963
    21  H    0.229057
    22  H    0.226558
    23  H    0.277684
    24  H    0.269847
    25  H    0.220076
    26  N    0.488596
    27  O   -0.465581
    28  O   -0.456523
 Sum of Mulliken charges =  -0.00000
 Mulliken charges with hydrogens summed into heavy atoms:
               1
     1  C    0.065248
     2  C    0.007722
     3  C    0.106790
     4  C    0.158465
     5  C    0.100818
     6  C   -0.005663
    12  N    0.488247
    13  O   -0.462178
    14  O   -0.459168
    15  C    0.059151
    16  C    0.008375
    17  C    0.108159
    18  C    0.160994
    19  C    0.094435
    20  C    0.002113
    26  N    0.488596
    27  O   -0.465581
    28  O   -0.456523
 Electronic spatial extent (au):  <R**2>=           9026.7486
 Charge=             -0.0000 electrons
 Dipole moment (field-independent basis, Debye):
    X=              3.5753    Y=              1.6991    Z=              1.7703  Tot=              4.3363
 Quadrupole moment (field-independent basis, Debye-Ang):
   XX=           -130.0755   YY=           -103.1742   ZZ=           -106.3603
   XY=             38.0248   XZ=             -3.0651   YZ=              0.0224
 Traceless Quadrupole moment (field-independent basis, Debye-Ang):
   XX=            -16.8722   YY=             10.0291   ZZ=              6.8430
   XY=             38.0248   XZ=             -3.0651   YZ=              0.0224
 Octapole moment (field-independent basis, Debye-Ang**2):
  XXX=            226.7881  YYY=             12.2578  ZZZ=            -12.4217  XYY=             -7.3660
  XXY=              6.1808  XXZ=             26.4937  XZZ=             -5.5499  YZZ=             -4.3048
  YYZ=             10.3029  XYZ=            -14.3123
 Hexadecapole moment (field-independent basis, Debye-Ang**3):
 XXXX=         -11040.1042 YYYY=          -1579.6657 ZZZZ=           -194.5033 XXXY=            850.8465
 XXXZ=           -177.8114 YYYX=            201.6690 YYYZ=              3.0765 ZZZX=             16.6205
 ZZZY=              2.6082 XXYY=          -2012.9851 XXZZ=          -1737.4249 YYZZ=           -320.4626
 XXYZ=              0.3149 YYXZ=             14.9438 ZZXY=            -73.8420
 N-N= 1.106758031523D+03 E-N=-4.246046954678D+03  KE= 8.656919393435D+02
 Leave Link  601 at Wed May  5 22:46:14 2021, MaxMem=   524288000 cpu:               0.7 elap:               0.7
 (Enter /opt/gaussian/g16_legacy/l9999.exe)
 1\1\GINC-TRUENO91\SP\RMP2-FC\6-31G(d)\C12H10N2O4\JRAMOS\05-May-2021\0\
 \#p 6-31g* mp2\\Input file generated by CHIRIPA (05-May-2021 14:57:25)
 \\0,1\C,0,1.914143,0.,0.\C,0,1.214143,1.211,0.\C,0,-0.183857,1.223,0.\
 C,0,-0.852857,0.,0.\C,0,-0.183857,-1.223,0.\C,0,1.214143,-1.211,0.\H,0
 ,3.000143,0.,0.\H,0,1.755143,2.153,0.\H,0,-0.750857,2.146,0.\H,0,-0.75
 0857,-2.146,0.\H,0,1.755143,-2.153,0.\N,0,-2.332857,0.,0.\O,0,-2.89885
 7,-1.091,0.\O,0,-2.898857,1.091,0.\C,0,3.074073,-6.908588,1.692845\C,0
 ,4.26419,-7.19923,2.367879\C,0,5.202478,-6.193427,2.617924\C,0,4.91698
 8,-4.90219,2.176911\C,0,3.740346,-4.581159,1.501824\C,0,2.816404,-5.60
 2782,1.26273\H,0,2.350761,-7.696065,1.502857\H,0,4.46696,-8.212433,2.7
 03066\H,0,6.131856,-6.390676,3.138277\H,0,3.56625,-3.561627,1.179856\H
 ,0,1.892985,-5.374156,0.738256\N,0,5.902718,-3.829017,2.435826\O,0,5.6
 27532,-2.699474,2.037024\O,0,6.931854,-4.137728,3.032662\\Version=EM64
 L-G16RevA.03\State=1-A\HF=-868.3375302\MP2=-870.9369318\RMSD=2.889e-09
 \PG=C01 [X(C12H10N2O4)]\\@


 IF YOU WISH TO UNDERSTAND THE FRAGRANCE OF THE ROSE, 
 OR THE TENACITY OF THE OAK; 
 IF YOU ARE NOT SATISFIED UNTIL YOU KNOW THE SECRET PATHS 
 BY WHICH THE SUNSHINE AND THE AIR ACHIEVE THESE WONDERS; 
 IF YOU WISH TO SEE THE PATTERN WHICH UNDERLIES ONE LARGE FIELD OF 
 HUMAN EXPERIENCE AND HUMAN MEASUREMENT, THEN TAKE UP CHEMISTRY.

                                         -- C. A. COULSON, 1973.
 Job cpu time:       0 days  0 hours  4 minutes 56.7 seconds.
 Elapsed time:       0 days  0 hours  2 minutes 32.6 seconds.
 File lengths (MBytes):  RWF=     50 Int=      0 D2E=      0 Chk=      7 Scr=      1
 Normal termination of Gaussian 16 at Wed May  5 22:46:14 2021.
