 Entering Gaussian System, Link 0=/opt/gaussian/g16_legacy/g16
 Input=gaussian_01783_2_1.com
 Output=gaussian_01783_2_1.log
 Initial command:
 /opt/gaussian/g16_legacy/l1.exe "/scratch-local/jramos/2589556/Gau-13053.inp" -scrdir="/scratch-local/jramos/2589556/"
 Entering Link 1 = /opt/gaussian/g16_legacy/l1.exe PID=     13056.
  
 Copyright (c) 1988,1990,1992,1993,1995,1998,2003,2009,2016,
            Gaussian, Inc.  All Rights Reserved.
  
 This is part of the Gaussian(R) 16 program.  It is based on
 the Gaussian(R) 09 system (copyright 2009, Gaussian, Inc.),
 the Gaussian(R) 03 system (copyright 2003, Gaussian, Inc.),
 the Gaussian(R) 98 system (copyright 1998, Gaussian, Inc.),
 the Gaussian(R) 94 system (copyright 1995, Gaussian, Inc.),
 the Gaussian 92(TM) system (copyright 1992, Gaussian, Inc.),
 the Gaussian 90(TM) system (copyright 1990, Gaussian, Inc.),
 the Gaussian 88(TM) system (copyright 1988, Gaussian, Inc.),
 the Gaussian 86(TM) system (copyright 1986, Carnegie Mellon
 University), and the Gaussian 82(TM) system (copyright 1983,
 Carnegie Mellon University). Gaussian is a federally registered
 trademark of Gaussian, Inc.
  
 This software contains proprietary and confidential information,
 including trade secrets, belonging to Gaussian, Inc.
  
 This software is provided under written license and may be
 used, copied, transmitted, or stored only in accord with that
 written license.
  
 The following legend is applicable only to US Government
 contracts under FAR:
  
                    RESTRICTED RIGHTS LEGEND
  
 Use, reproduction and disclosure by the US Government is
 subject to restrictions as set forth in subparagraphs (a)
 and (c) of the Commercial Computer Software - Restricted
 Rights clause in FAR 52.227-19.
  
 Gaussian, Inc.
 340 Quinnipiac St., Bldg. 40, Wallingford CT 06492
  
  
 ---------------------------------------------------------------
 Warning -- This program may not be used in any manner that
 competes with the business of Gaussian, Inc. or will provide
 assistance to any competitor of Gaussian, Inc.  The licensee
 of this program is prohibited from giving any competitor of
 Gaussian, Inc. access to this program.  By using this program,
 the user acknowledges that Gaussian, Inc. is engaged in the
 business of creating and licensing software in the field of
 computational chemistry and represents and warrants to the
 licensee that it is not a competitor of Gaussian, Inc. and that
 it will not use this program in any manner prohibited above.
 ---------------------------------------------------------------
  

 Cite this work as:
 Gaussian 16, Revision A.03,
 M. J. Frisch, G. W. Trucks, H. B. Schlegel, G. E. Scuseria, 
 M. A. Robb, J. R. Cheeseman, G. Scalmani, V. Barone, 
 G. A. Petersson, H. Nakatsuji, X. Li, M. Caricato, A. V. Marenich, 
 J. Bloino, B. G. Janesko, R. Gomperts, B. Mennucci, H. P. Hratchian, 
 J. V. Ortiz, A. F. Izmaylov, J. L. Sonnenberg, D. Williams-Young, 
 F. Ding, F. Lipparini, F. Egidi, J. Goings, B. Peng, A. Petrone, 
 T. Henderson, D. Ranasinghe, V. G. Zakrzewski, J. Gao, N. Rega, 
 G. Zheng, W. Liang, M. Hada, M. Ehara, K. Toyota, R. Fukuda, 
 J. Hasegawa, M. Ishida, T. Nakajima, Y. Honda, O. Kitao, H. Nakai, 
 T. Vreven, K. Throssell, J. A. Montgomery, Jr., J. E. Peralta, 
 F. Ogliaro, M. J. Bearpark, J. J. Heyd, E. N. Brothers, K. N. Kudin, 
 V. N. Staroverov, T. A. Keith, R. Kobayashi, J. Normand, 
 K. Raghavachari, A. P. Rendell, J. C. Burant, S. S. Iyengar, 
 J. Tomasi, M. Cossi, J. M. Millam, M. Klene, C. Adamo, R. Cammi, 
 J. W. Ochterski, R. L. Martin, K. Morokuma, O. Farkas, 
 J. B. Foresman, and D. J. Fox, Gaussian, Inc., Wallingford CT, 2016.
 
 ******************************************
 Gaussian 16:  EM64L-G16RevA.03 25-Dec-2016
                 5-May-2021 
 ******************************************
 %chk=gaussian_01783_2_1.chk
 %nproc=2
 Will use up to    2 processors via shared memory.
 %mem=4000Mb
 -------------
 #p 6-31g* mp2
 -------------
 1/38=1,172=1/1;
 2/12=2,17=6,18=5,40=1/2;
 3/5=1,6=6,7=1,11=9,25=1,30=1/1,2,3;
 4//1;
 5/5=2,38=5/2;
 8/10=2/1;
 9/16=-3/6;
 6/7=2,8=2,9=2,10=2/1;
 99/5=1,9=1/99;
 Leave Link    1 at Wed May  5 23:48:17 2021, MaxMem=   524288000 cpu:               0.1 elap:               0.2
 (Enter /opt/gaussian/g16_legacy/l101.exe)
 ------------------------------------------------------
 Input file generated by CHIRIPA (05-May-2021 14:55:21)
 ------------------------------------------------------
 Symbolic Z-matrix:
 Charge =  0 Multiplicity = 1
 C                     1.91414   0.        0. 
 C                     1.21414   1.211     0. 
 C                    -0.18386   1.223     0. 
 C                    -0.85286   0.        0. 
 C                    -0.18386  -1.223     0. 
 C                     1.21414  -1.211     0. 
 H                     3.00014   0.        0. 
 H                     1.75514   2.153     0. 
 H                    -0.75086   2.146     0. 
 H                    -0.75086  -2.146     0. 
 H                     1.75514  -2.153     0. 
 N                    -2.33286   0.        0. 
 O                    -2.89886  -1.091     0. 
 O                    -2.89886   1.091     0. 
 C                    -5.15649  -4.57615   1.5244 
 C                    -6.07912  -3.43126   1.10491 
 C                    -7.33088  -3.9182    0.37431 
 H                    -4.86354  -5.14785   0.63317 
 H                    -5.71342  -5.26854   2.17078 
 H                    -5.52022  -2.7405    0.46062 
 H                    -6.36976  -2.8621    1.99721 
 H                    -7.91273  -4.59052   1.01309 
 H                    -7.05837  -4.46822  -0.53223 
 H                    -7.97627  -3.08346   0.08355 
 C                    -3.90076  -4.10525   2.25592 
 C                    -2.97813  -5.25014   2.67541 
 C                    -1.72637  -4.7632    3.40601 
 H                    -3.34384  -3.41285   1.60953 
 H                    -4.19372  -3.53355   3.14715 
 H                    -2.6875   -5.81929   1.78311 
 H                    -3.53703  -5.9409    3.31969 
 H                    -1.99889  -4.21317   4.31255 
 H                    -1.14453  -4.09088   2.76723 
 H                    -1.08098  -5.59794   3.69677 
 
 ITRead=  0  0  0  0  0  0  0  0  0  0  0  0  0  0  0  0  0  0  0  0
 ITRead=  0  0  0  0  0  0  0  0  0  0  0  0  0  0
 MicOpt= -1 -1 -1 -1 -1 -1 -1 -1 -1 -1 -1 -1 -1 -1 -1 -1 -1 -1 -1 -1
 MicOpt= -1 -1 -1 -1 -1 -1 -1 -1 -1 -1 -1 -1 -1 -1
 NAtoms=     34 NQM=       34 NQMF=       0 NMMI=      0 NMMIF=      0
                NMic=       0 NMicF=      0.
                    Isotopes and Nuclear Properties:
 (Nuclear quadrupole moments (NQMom) in fm**2, nuclear magnetic moments (NMagM)
  in nuclear magnetons)

  Atom         1           2           3           4           5           6           7           8           9          10
 IAtWgt=          12          12          12          12          12          12           1           1           1           1
 AtmWgt=  12.0000000  12.0000000  12.0000000  12.0000000  12.0000000  12.0000000   1.0078250   1.0078250   1.0078250   1.0078250
 NucSpn=           0           0           0           0           0           0           1           1           1           1
 AtZEff=  -0.0000000  -0.0000000  -0.0000000  -0.0000000  -0.0000000  -0.0000000  -0.0000000  -0.0000000  -0.0000000  -0.0000000
 NQMom=    0.0000000   0.0000000   0.0000000   0.0000000   0.0000000   0.0000000   0.0000000   0.0000000   0.0000000   0.0000000
 NMagM=    0.0000000   0.0000000   0.0000000   0.0000000   0.0000000   0.0000000   2.7928460   2.7928460   2.7928460   2.7928460
 AtZNuc=   6.0000000   6.0000000   6.0000000   6.0000000   6.0000000   6.0000000   1.0000000   1.0000000   1.0000000   1.0000000

  Atom        11          12          13          14          15          16          17          18          19          20
 IAtWgt=           1          14          16          16          12          12          12           1           1           1
 AtmWgt=   1.0078250  14.0030740  15.9949146  15.9949146  12.0000000  12.0000000  12.0000000   1.0078250   1.0078250   1.0078250
 NucSpn=           1           2           0           0           0           0           0           1           1           1
 AtZEff=  -0.0000000  -0.0000000  -0.0000000  -0.0000000  -0.0000000  -0.0000000  -0.0000000  -0.0000000  -0.0000000  -0.0000000
 NQMom=    0.0000000   2.0440000   0.0000000   0.0000000   0.0000000   0.0000000   0.0000000   0.0000000   0.0000000   0.0000000
 NMagM=    2.7928460   0.4037610   0.0000000   0.0000000   0.0000000   0.0000000   0.0000000   2.7928460   2.7928460   2.7928460
 AtZNuc=   1.0000000   7.0000000   8.0000000   8.0000000   6.0000000   6.0000000   6.0000000   1.0000000   1.0000000   1.0000000

  Atom        21          22          23          24          25          26          27          28          29          30
 IAtWgt=           1           1           1           1          12          12          12           1           1           1
 AtmWgt=   1.0078250   1.0078250   1.0078250   1.0078250  12.0000000  12.0000000  12.0000000   1.0078250   1.0078250   1.0078250
 NucSpn=           1           1           1           1           0           0           0           1           1           1
 AtZEff=  -0.0000000  -0.0000000  -0.0000000  -0.0000000  -0.0000000  -0.0000000  -0.0000000  -0.0000000  -0.0000000  -0.0000000
 NQMom=    0.0000000   0.0000000   0.0000000   0.0000000   0.0000000   0.0000000   0.0000000   0.0000000   0.0000000   0.0000000
 NMagM=    2.7928460   2.7928460   2.7928460   2.7928460   0.0000000   0.0000000   0.0000000   2.7928460   2.7928460   2.7928460
 AtZNuc=   1.0000000   1.0000000   1.0000000   1.0000000   6.0000000   6.0000000   6.0000000   1.0000000   1.0000000   1.0000000

  Atom        31          32          33          34
 IAtWgt=           1           1           1           1
 AtmWgt=   1.0078250   1.0078250   1.0078250   1.0078250
 NucSpn=           1           1           1           1
 AtZEff=  -0.0000000  -0.0000000  -0.0000000  -0.0000000
 NQMom=    0.0000000   0.0000000   0.0000000   0.0000000
 NMagM=    2.7928460   2.7928460   2.7928460   2.7928460
 AtZNuc=   1.0000000   1.0000000   1.0000000   1.0000000
 Leave Link  101 at Wed May  5 23:48:17 2021, MaxMem=   524288000 cpu:               0.4 elap:               0.4
 (Enter /opt/gaussian/g16_legacy/l202.exe)
                          Input orientation:                          
 ---------------------------------------------------------------------
 Center     Atomic      Atomic             Coordinates (Angstroms)
 Number     Number       Type             X           Y           Z
 ---------------------------------------------------------------------
      1          6           0        1.914143    0.000000    0.000000
      2          6           0        1.214143    1.211000    0.000000
      3          6           0       -0.183857    1.223000    0.000000
      4          6           0       -0.852857    0.000000    0.000000
      5          6           0       -0.183857   -1.223000    0.000000
      6          6           0        1.214143   -1.211000    0.000000
      7          1           0        3.000143    0.000000    0.000000
      8          1           0        1.755143    2.153000    0.000000
      9          1           0       -0.750857    2.146000    0.000000
     10          1           0       -0.750857   -2.146000    0.000000
     11          1           0        1.755143   -2.153000    0.000000
     12          7           0       -2.332857    0.000000    0.000000
     13          8           0       -2.898857   -1.091000    0.000000
     14          8           0       -2.898857    1.091000    0.000000
     15          6           0       -5.156493   -4.576145    1.524395
     16          6           0       -6.079122   -3.431258    1.104905
     17          6           0       -7.330883   -3.918199    0.374305
     18          1           0       -4.863538   -5.147845    0.633170
     19          1           0       -5.713418   -5.268540    2.170785
     20          1           0       -5.520225   -2.740498    0.460622
     21          1           0       -6.369761   -2.862102    1.997209
     22          1           0       -7.912730   -4.590518    1.013086
     23          1           0       -7.058367   -4.468223   -0.532232
     24          1           0       -7.976274   -3.083459    0.083547
     25          6           0       -3.900764   -4.105248    2.255919
     26          6           0       -2.978134   -5.250136    2.675410
     27          6           0       -1.726373   -4.763195    3.406010
     28          1           0       -3.343839   -3.412854    1.609530
     29          1           0       -4.193719   -3.533549    3.147145
     30          1           0       -2.687495   -5.819291    1.783106
     31          1           0       -3.537031   -5.940896    3.319693
     32          1           0       -1.998889   -4.213171    4.312547
     33          1           0       -1.144526   -4.090875    2.767229
     34          1           0       -1.080982   -5.597935    3.696768
 ---------------------------------------------------------------------
                    Distance matrix (angstroms):
                    1          2          3          4          5
     1  C    0.000000
     2  C    1.398757   0.000000
     3  C    2.428443   1.398052   0.000000
     4  C    2.767000   2.395623   1.394019   0.000000
     5  C    2.428443   2.806913   2.446000   1.394019   0.000000
     6  C    1.398757   2.422000   2.806913   2.395623   1.398052
     7  H    1.086000   2.157850   3.410804   3.853000   3.410804
     8  H    2.158863   1.086299   2.150493   3.381874   3.893212
     9  H    3.421628   2.176109   1.083244   2.148423   3.416380
    10  H    3.421628   3.889817   3.416380   2.148423   1.083244
    11  H    2.158863   3.407224   3.893212   3.381874   2.150493
    12  N    4.247000   3.748030   2.472636   1.480000   2.472636
    13  O    4.935104   4.713382   3.567327   2.318706   2.718207
    14  O    4.935104   4.114750   2.718207   2.318706   3.567327
    15  C    8.559134   8.740700   7.789799   6.464222   6.188253
    16  C    8.768502   8.715681   7.591909   6.348873   6.391507
    17  C   10.048029   9.973277   8.812038   7.580053   7.647495
    18  H    8.534528   8.818958   7.930194   6.556430   6.140417
    19  H    9.521004   9.730768   8.799343   7.489651   7.187124
    20  H    7.936771   7.821651   6.663206   5.432019   5.567028
    21  H    8.989079   8.837115   7.677390   6.528147   6.703798
    22  H   10.893421  10.862033   9.724136   8.481804   8.491290
    23  H   10.037640  10.048446   8.940480   7.665288   7.620606
    24  H   10.360263  10.144611   8.903613   7.762588   8.011869
    25  C    7.466952   7.714528   6.877121   5.588557   5.216505
    26  C    7.658728   8.153483   7.541041   6.264068   5.584230
    27  C    6.895092   7.479207   7.057959   5.920470   5.149101
    28  H    6.471826   6.689231   5.836713   4.521410   4.167917
    29  H    7.726349   7.852403   6.971963   5.792396   5.596620
    30  H    7.630117   8.235729   7.683849   6.356848   5.529336
    31  H    8.719513   9.205630   8.578202   7.315695   6.672532
    32  H    7.187537   7.638276   7.172472   6.136959   5.552794
    33  H    5.809326   6.428900   6.067760   4.947513   4.099408
    34  H    7.346682   8.080550   7.809999   6.712303   5.797498
                    6          7          8          9         10
     6  C    0.000000
     7  H    2.157850   0.000000
     8  H    3.407224   2.487053   0.000000
     9  H    3.889817   4.321495   2.506010   0.000000
    10  H    2.176109   4.321495   4.976087   4.292000   0.000000
    11  H    1.086299   2.487053   4.306000   4.976087   2.506010
    12  N    3.748030   5.333000   4.620298   2.666091   2.666091
    13  O    4.114750   5.999040   5.673028   3.884852   2.393100
    14  O    4.713382   5.999040   4.773632   2.393100   3.884852
    15  C    7.364305   9.476054   9.766058   8.180504   5.257282
    16  C    7.703381   9.768695   9.684031   7.792113   5.591343
    17  C    8.971427  11.055428  10.934141   8.956079   6.824774
    18  H    7.268965   9.420122   9.874724   8.397334   5.130899
    19  H    8.316672  10.411338  10.750394   9.182305   6.252166
    20  H    6.921217   8.962096   8.780061   6.843749   4.828299
    21  H    8.014398   9.998779   9.754699   7.787298   6.006141
    22  H    9.785055  11.882340  11.830856   9.884303   7.635079
    23  H    8.906582  11.019161  11.036386   9.155102   6.742453
    24  H    9.379597  11.401598  11.051152   8.919690   7.286457
    25  C    6.295087   8.340548   8.731788   7.354535   4.341628
    26  C    6.406842   8.394137   9.185214   8.174436   4.664144
    27  C    5.732855   7.525217   8.459055   7.764632   4.404798
    28  H    5.311680   7.381346   7.718091   6.341530   3.304400
    29  H    6.674109   8.610583   8.810807   7.349496   4.866530
    30  H    6.295919   8.330237   9.299136   8.389034   4.519192
    31  H    7.481038   9.436591  10.224413   9.175021   5.760587
    32  H    6.159113   7.831934   8.556807   7.784260   4.942554
    33  H    4.638379   6.447565   7.419677   6.834555   3.405154
    34  H    6.178907   7.852296   9.043600   8.587410   5.068622
                   11         12         13         14         15
    11  H    0.000000
    12  N    4.620298   0.000000
    13  O    4.773632   1.229080   0.000000
    14  O    5.673028   1.229080   2.182000   0.000000
    15  C    7.481051   5.589079   4.423453   6.287864   0.000000
    16  C    8.014391   5.198928   4.100208   5.637882   1.529046
    17  C    9.263471   6.361812   5.270295   6.698883   2.546286
    18  H    7.292252   5.771097   4.551798   6.571458   1.098611
    19  H    8.378443   6.625558   5.485062   7.285452   1.098816
    20  H    7.313570   4.228690   3.131228   4.665203   2.152560
    21  H    8.396769   5.336391   4.378678   5.626992   2.152560
    22  H   10.021757   7.296176   6.197733   7.644927   2.803299
    23  H    9.128060   6.525238   5.384276   6.963459   2.803299
    24  H    9.776155   6.431396   5.455001   6.573679   3.500760
    25  C    6.394508   4.939693   3.895982   5.752737   1.527654
    26  C    6.257314   5.927742   4.945960   6.882885   2.554280
    27  C    5.525846   5.886999   5.143991   6.873661   3.916783
    28  H    5.493399   3.906436   2.860000   4.803467   2.155507
    29  H    6.870182   5.084614   4.188942   5.741746   2.155750
    30  H    6.029775   6.096670   5.057754   7.139766   2.776382
    31  H    7.305862   6.911197   5.911778   7.802255   2.776382
    32  H    6.077427   6.038245   5.399626   6.895088   4.228002
    33  H    4.452078   5.079857   4.442351   6.130829   4.228002
    34  H    5.794590   6.824233   6.105999   7.855738   4.730016
                   16         17         18         19         20
    16  C    0.000000
    17  C    1.528984   0.000000
    18  H    2.155655   2.768904   0.000000
    19  H    2.155329   2.768927   1.761001   0.000000
    20  H    1.097550   2.161692   2.501266   3.058264   0.000000
    21  H    1.097550   2.161692   3.058420   2.500372   1.760000
    22  H    2.171274   1.094806   3.122903   2.576229   3.074389
    23  H    2.171275   1.094806   2.576300   3.123411   2.517275
    24  H    2.182504   1.094468   3.775301   3.775137   2.508383
    25  C    2.554279   3.916781   2.155750   2.155507   2.776380
    26  C    3.923128   5.100545   2.781359   2.781504   4.203070
    27  C    5.100545   6.427736   4.204569   4.204484   5.211519
    28  H    2.781503   4.204483   2.504587   3.061614   2.551217
    29  H    2.781358   4.204568   3.061810   2.504587   3.099347
    30  H    4.203069   5.211518   2.551148   3.099973   4.387743
    31  H    4.203070   5.211519   3.099348   2.551218   4.727567
    32  H    5.248681   6.635278   4.755801   4.415730   5.422721
    33  H    5.248681   6.635278   4.416157   4.755777   5.127445
    34  H    6.032715   7.274719   4.888348   4.888414   6.192291
                   21         22         23         24         25
    21  H    0.000000
    22  H    2.517275   0.000000
    23  H    3.074390   1.770000   0.000000
    24  H    2.508383   1.771809   1.771809   0.000000
    25  C    2.776381   4.228001   4.228001   4.730014   0.000000
    26  C    4.203070   5.248681   5.248681   6.032715   1.529048
    27  C    5.211519   6.635278   6.635278   7.274719   2.546287
    28  H    3.099972   4.755776   4.415729   4.888413   1.098815
    29  H    2.551147   4.416156   4.755801   4.888347   1.098611
    30  H    4.727567   5.422720   5.127445   6.192290   2.152561
    31  H    4.387744   5.127446   5.422721   6.192291   2.152561
    32  H    5.127446   6.782503   7.009654   7.408767   2.803301
    33  H    5.422720   7.009654   6.782503   7.408766   2.803300
    34  H    6.192291   7.408766   7.408767   8.180648   3.500761
                   26         27         28         29         30
    26  C    0.000000
    27  C    1.528984   0.000000
    28  H    2.155330   2.768927   0.000000
    29  H    2.155656   2.768905   1.761001   0.000000
    30  H    1.097549   2.161692   2.500371   3.058419   0.000000
    31  H    1.097550   2.161692   3.058264   2.501266   1.760000
    32  H    2.171275   1.094806   3.123411   2.576301   3.074390
    33  H    2.171275   1.094807   2.576229   3.122904   2.517275
    34  H    2.182504   1.094468   3.775138   3.775302   2.508383
                   31         32         33         34
    31  H    0.000000
    32  H    2.517275   0.000000
    33  H    3.074390   1.770000   0.000000
    34  H    2.508383   1.771809   1.771810   0.000000
 Stoichiometry    C12H19NO2
 Framework group  C1[X(C12H19NO2)]
 Deg. of freedom    96
 Full point group                 C1      NOp   1
 Largest Abelian subgroup         C1      NOp   1
 Largest concise Abelian subgroup C1      NOp   1
                         Standard orientation:                         
 ---------------------------------------------------------------------
 Center     Atomic      Atomic             Coordinates (Angstroms)
 Number     Number       Type             X           Y           Z
 ---------------------------------------------------------------------
      1          6           0        4.544973    1.212068    0.427200
      2          6           0        4.782366    0.014857   -0.256066
      3          6           0        3.746248   -0.899759   -0.466979
      4          6           0        2.479326   -0.583621    0.021134
      5          6           0        2.211260    0.600834    0.705603
      6          6           0        3.262439    1.500727    0.905011
      7          1           0        5.355705    1.916845    0.586573
      8          1           0        5.777391   -0.211958   -0.628256
      9          1           0        3.902194   -1.833973   -0.992662
     10          1           0        1.208749    0.799120    1.064869
     11          1           0        3.075160    2.429724    1.435987
     12          7           0        1.374462   -1.544091   -0.196060
     13          8           0        0.267269   -1.242089    0.243890
     14          8           0        1.636583   -2.580722   -0.802134
     15          6           0       -3.942233    0.116813    0.264333
     16          6           0       -3.819790   -1.373075   -0.056948
     17          6           0       -4.898329   -2.215442    0.624935
     18          1           0       -3.885276    0.256637    1.352520
     19          1           0       -4.935407    0.471022   -0.044758
     20          1           0       -2.826635   -1.724053    0.251394
     21          1           0       -3.876853   -1.509349   -1.144509
     22          1           0       -5.895828   -1.893148    0.309146
     23          1           0       -4.839643   -2.109071    1.712980
     24          1           0       -4.792012   -3.277216    0.381636
     25          6           0       -2.871004    0.972014   -0.410075
     26          6           0       -2.993447    2.461905   -0.088795
     27          6           0       -1.914908    3.304272   -0.770678
     28          1           0       -1.877830    0.617807   -0.100985
     29          1           0       -2.927962    0.832192   -1.498263
     30          1           0       -2.936383    2.598178    0.998766
     31          1           0       -3.986601    2.812882   -0.397136
     32          1           0       -1.973594    3.197901   -1.858723
     33          1           0       -0.917408    2.981977   -0.454889
     34          1           0       -2.021225    4.366045   -0.527378
 ---------------------------------------------------------------------
 Rotational constants (GHZ):           0.7400907           0.2232468           0.1796457
 Leave Link  202 at Wed May  5 23:48:18 2021, MaxMem=   524288000 cpu:               0.1 elap:               0.2
 (Enter /opt/gaussian/g16_legacy/l301.exe)
 Standard basis: 6-31G(d) (6D, 7F)
 Ernie: Thresh=  0.10000D-02 Tol=  0.10000D-05 Strict=F.
 There are   263 symmetry adapted cartesian basis functions of A   symmetry.
 There are   263 symmetry adapted basis functions of A   symmetry.
   263 basis functions,   496 primitive gaussians,   263 cartesian basis functions
    57 alpha electrons       57 beta electrons
       nuclear repulsion energy       920.2378784005 Hartrees.
 IExCor=    0 DFT=F Ex=HF Corr=None ExCW=0 ScaHFX=  1.000000
 ScaDFX=  1.000000  1.000000  1.000000  1.000000 ScalE2=  1.000000  1.000000
 IRadAn=      5 IRanWt=     -1 IRanGd=            0 ICorTp=0 IEmpDi=  4
 NAtoms=   34 NActive=   34 NUniq=   34 SFac= 1.00D+00 NAtFMM=   60 NAOKFM=F Big=F
 Integral buffers will be    131072 words long.
 Raffenetti 1 integral format.
 Two-electron integral symmetry is turned on.
 Leave Link  301 at Wed May  5 23:48:18 2021, MaxMem=   524288000 cpu:               0.4 elap:               0.4
 (Enter /opt/gaussian/g16_legacy/l302.exe)
 NPDir=0 NMtPBC=     1 NCelOv=     1 NCel=       1 NClECP=     1 NCelD=      1
         NCelK=      1 NCelE2=     1 NClLst=     1 CellRange=     0.0.
 One-electron integrals computed using PRISM.
 One-electron integral symmetry used in STVInt
 NBasis=   263 RedAO= T EigKep=  4.80D-04  NBF=   263
 NBsUse=   263 1.00D-06 EigRej= -1.00D+00 NBFU=   263
 Leave Link  302 at Wed May  5 23:48:19 2021, MaxMem=   524288000 cpu:               0.9 elap:               0.6
 (Enter /opt/gaussian/g16_legacy/l303.exe)
 DipDrv:  MaxL=1.
 Leave Link  303 at Wed May  5 23:48:19 2021, MaxMem=   524288000 cpu:               0.2 elap:               0.1
 (Enter /opt/gaussian/g16_legacy/l401.exe)
 ExpMin= 1.61D-01 ExpMax= 5.48D+03 ExpMxC= 8.25D+02 IAcc=3 IRadAn=         5 AccDes= 0.00D+00
 Harris functional with IExCor=  205 and IRadAn=       5 diagonalized for initial guess.
 HarFok:  IExCor=  205 AccDes= 0.00D+00 IRadAn=         5 IDoV= 1 UseB2=F ITyADJ=14
 ICtDFT=  3500011 ScaDFX=  1.000000  1.000000  1.000000  1.000000
 FoFCou: FMM=F IPFlag=           0 FMFlag=      100000 FMFlg1=           0
         NFxFlg=           0 DoJE=T BraDBF=F KetDBF=T FulRan=T
         wScrn=  0.000000 ICntrl=       500 IOpCl=  0 I1Cent=   200000004 NGrid=           0
         NMat0=    1 NMatS0=      1 NMatT0=    0 NMatD0=    1 NMtDS0=    0 NMtDT0=    0
 Petite list used in FoFCou.
 Harris En= -670.658387675172    
 JPrj=0 DoOrth=F DoCkMO=F.
 Leave Link  401 at Wed May  5 23:48:27 2021, MaxMem=   524288000 cpu:              15.3 elap:               7.9
 (Enter /opt/gaussian/g16_legacy/l502.exe)
 Integral symmetry usage will be decided dynamically.
 Closed shell SCF:
 Using DIIS extrapolation, IDIIS=  1040.
 NGot=   524288000 LenX=   524144919 LenY=   524075309
 Requested convergence on RMS density matrix=1.00D-08 within 128 cycles.
 Requested convergence on MAX density matrix=1.00D-06.
 Requested convergence on             energy=1.00D-06.
 No special actions if energy rises.
 Fock matrices will be formed incrementally for  20 cycles.
 Integral accuracy reduced to 1.0D-05 until final iterations.

 Cycle   1  Pass 0  IDiag  1:
 FoFJK:  IHMeth= 1 ICntrl=       0 DoSepK=F KAlg= 0 I1Cent=           0 FoldK=F
 IRaf= 750000000 NMat=       1 IRICut=       1 DoRegI=T DoRafI=F ISym2E= 0 IDoP0=0 IntGTp=1.
 FoFCou: FMM=F IPFlag=           0 FMFlag=      100000 FMFlg1=           0
         NFxFlg=           0 DoJE=F BraDBF=F KetDBF=F FulRan=T
         wScrn=  0.000000 ICntrl=         0 IOpCl=  0 I1Cent=           0 NGrid=           0
         NMat0=    1 NMatS0=      1 NMatT0=    0 NMatD0=    1 NMtDS0=    0 NMtDT0=    0
 Symmetry not used in FoFCou.
 E= -668.738946982412    
 DIIS: error= 5.72D-02 at cycle   1 NSaved=   1.
 NSaved= 1 IEnMin= 1 EnMin= -668.738946982412     IErMin= 1 ErrMin= 5.72D-02
 ErrMax= 5.72D-02  0.00D+00 EMaxC= 1.00D-01 BMatC= 1.18D+00 BMatP= 1.18D+00
 IDIUse=3 WtCom= 4.28D-01 WtEn= 5.72D-01
 Coeff-Com:  0.100D+01
 Coeff-En:   0.100D+01
 Coeff:      0.100D+01
 Gap=     0.556 Goal=   None    Shift=    0.000
 GapD=    0.556 DampG=2.000 DampE=0.500 DampFc=1.0000 IDamp=-1.
 RMSDP=4.60D-03 MaxDP=1.11D-01              OVMax= 1.52D-01

 Cycle   2  Pass 0  IDiag  1:
 RMSU=  4.48D-03    CP:  9.48D-01
 E= -669.358565119250     Delta-E=       -0.619618136838 Rises=F Damp=F
 DIIS: error= 2.97D-02 at cycle   2 NSaved=   2.
 NSaved= 2 IEnMin= 2 EnMin= -669.358565119250     IErMin= 2 ErrMin= 2.97D-02
 ErrMax= 2.97D-02  0.00D+00 EMaxC= 1.00D-01 BMatC= 2.18D-01 BMatP= 1.18D+00
 IDIUse=3 WtCom= 7.03D-01 WtEn= 2.97D-01
 Coeff-Com:  0.247D+00 0.753D+00
 Coeff-En:   0.000D+00 0.100D+01
 Coeff:      0.174D+00 0.826D+00
 Gap=     0.557 Goal=   None    Shift=    0.000
 RMSDP=1.82D-03 MaxDP=8.38D-02 DE=-6.20D-01 OVMax= 1.22D-01

 Cycle   3  Pass 0  IDiag  1:
 RMSU=  1.44D-03    CP:  9.57D-01  7.54D-01
 E= -669.507653970187     Delta-E=       -0.149088850937 Rises=F Damp=F
 DIIS: error= 1.50D-02 at cycle   3 NSaved=   3.
 NSaved= 3 IEnMin= 3 EnMin= -669.507653970187     IErMin= 3 ErrMin= 1.50D-02
 ErrMax= 1.50D-02  0.00D+00 EMaxC= 1.00D-01 BMatC= 3.72D-02 BMatP= 2.18D-01
 IDIUse=3 WtCom= 8.50D-01 WtEn= 1.50D-01
 Coeff-Com: -0.945D-02 0.271D+00 0.738D+00
 Coeff-En:   0.000D+00 0.000D+00 0.100D+01
 Coeff:     -0.804D-02 0.231D+00 0.777D+00
 Gap=     0.425 Goal=   None    Shift=    0.000
 RMSDP=6.06D-04 MaxDP=3.25D-02 DE=-1.49D-01 OVMax= 5.12D-02

 Cycle   4  Pass 0  IDiag  1:
 RMSU=  4.01D-04    CP:  9.55D-01  8.33D-01  8.03D-01
 E= -669.533780910224     Delta-E=       -0.026126940037 Rises=F Damp=F
 DIIS: error= 4.55D-03 at cycle   4 NSaved=   4.
 NSaved= 4 IEnMin= 4 EnMin= -669.533780910224     IErMin= 4 ErrMin= 4.55D-03
 ErrMax= 4.55D-03  0.00D+00 EMaxC= 1.00D-01 BMatC= 3.10D-03 BMatP= 3.72D-02
 IDIUse=3 WtCom= 9.54D-01 WtEn= 4.55D-02
 Coeff-Com: -0.133D-01 0.439D-01 0.295D+00 0.674D+00
 Coeff-En:   0.000D+00 0.000D+00 0.000D+00 0.100D+01
 Coeff:     -0.127D-01 0.419D-01 0.282D+00 0.689D+00
 Gap=     0.411 Goal=   None    Shift=    0.000
 RMSDP=1.75D-04 MaxDP=9.21D-03 DE=-2.61D-02 OVMax= 1.49D-02

 Cycle   5  Pass 0  IDiag  1:
 RMSU=  9.76D-05    CP:  9.55D-01  8.34D-01  8.77D-01  7.58D-01
 E= -669.536266762004     Delta-E=       -0.002485851780 Rises=F Damp=F
 DIIS: error= 5.64D-04 at cycle   5 NSaved=   5.
 NSaved= 5 IEnMin= 5 EnMin= -669.536266762004     IErMin= 5 ErrMin= 5.64D-04
 ErrMax= 5.64D-04  0.00D+00 EMaxC= 1.00D-01 BMatC= 6.16D-05 BMatP= 3.10D-03
 IDIUse=3 WtCom= 9.94D-01 WtEn= 5.64D-03
 Coeff-Com:  0.204D-02-0.197D-01-0.769D-01-0.300D-01 0.112D+01
 Coeff-En:   0.000D+00 0.000D+00 0.000D+00 0.000D+00 0.100D+01
 Coeff:      0.203D-02-0.196D-01-0.765D-01-0.299D-01 0.112D+01
 Gap=     0.413 Goal=   None    Shift=    0.000
 RMSDP=5.34D-05 MaxDP=1.56D-03 DE=-2.49D-03 OVMax= 4.75D-03

 Cycle   6  Pass 0  IDiag  1:
 RMSU=  2.49D-05    CP:  9.55D-01  8.37D-01  8.90D-01  8.43D-01  1.25D+00
 E= -669.536378678070     Delta-E=       -0.000111916066 Rises=F Damp=F
 DIIS: error= 1.94D-04 at cycle   6 NSaved=   6.
 NSaved= 6 IEnMin= 6 EnMin= -669.536378678070     IErMin= 6 ErrMin= 1.94D-04
 ErrMax= 1.94D-04  0.00D+00 EMaxC= 1.00D-01 BMatC= 5.92D-06 BMatP= 6.16D-05
 IDIUse=3 WtCom= 9.98D-01 WtEn= 1.94D-03
 Coeff-Com:  0.126D-02-0.671D-02-0.344D-01-0.517D-01 0.143D+00 0.948D+00
 Coeff-En:   0.000D+00 0.000D+00 0.000D+00 0.000D+00 0.000D+00 0.100D+01
 Coeff:      0.126D-02-0.670D-02-0.344D-01-0.516D-01 0.143D+00 0.949D+00
 Gap=     0.413 Goal=   None    Shift=    0.000
 RMSDP=1.74D-05 MaxDP=5.23D-04 DE=-1.12D-04 OVMax= 1.69D-03

 Cycle   7  Pass 0  IDiag  1:
 RMSU=  8.83D-06    CP:  9.55D-01  8.37D-01  8.93D-01  8.56D-01  1.38D+00
                    CP:  1.18D+00
 E= -669.536393740449     Delta-E=       -0.000015062379 Rises=F Damp=F
 DIIS: error= 1.47D-04 at cycle   7 NSaved=   7.
 NSaved= 7 IEnMin= 7 EnMin= -669.536393740449     IErMin= 7 ErrMin= 1.47D-04
 ErrMax= 1.47D-04  0.00D+00 EMaxC= 1.00D-01 BMatC= 1.16D-06 BMatP= 5.92D-06
 IDIUse=3 WtCom= 9.99D-01 WtEn= 1.47D-03
 Coeff-Com: -0.250D-03 0.245D-02 0.949D-02 0.521D-02-0.152D+00 0.150D-01
 Coeff-Com:  0.112D+01
 Coeff-En:   0.000D+00 0.000D+00 0.000D+00 0.000D+00 0.000D+00 0.000D+00
 Coeff-En:   0.100D+01
 Coeff:     -0.249D-03 0.245D-02 0.947D-02 0.520D-02-0.152D+00 0.150D-01
 Coeff:      0.112D+01
 Gap=     0.413 Goal=   None    Shift=    0.000
 RMSDP=8.92D-06 MaxDP=3.88D-04 DE=-1.51D-05 OVMax= 1.34D-03

 Initial convergence to 1.0D-05 achieved.  Increase integral accuracy.
 Cycle   8  Pass 1  IDiag  1:
 E= -669.536397887846     Delta-E=       -0.000004147397 Rises=F Damp=F
 DIIS: error= 5.98D-05 at cycle   1 NSaved=   1.
 NSaved= 1 IEnMin= 1 EnMin= -669.536397887846     IErMin= 1 ErrMin= 5.98D-05
 ErrMax= 5.98D-05  0.00D+00 EMaxC= 1.00D-01 BMatC= 3.75D-07 BMatP= 3.75D-07
 IDIUse=1 WtCom= 1.00D+00 WtEn= 0.00D+00
 Coeff-Com:  0.100D+01
 Coeff:      0.100D+01
 Gap=     0.413 Goal=   None    Shift=    0.000
 RMSDP=8.92D-06 MaxDP=3.88D-04 DE=-4.15D-06 OVMax= 5.31D-04

 Cycle   9  Pass 1  IDiag  1:
 RMSU=  1.02D-05    CP:  1.00D+00
 E= -669.536398906615     Delta-E=       -0.000001018768 Rises=F Damp=F
 DIIS: error= 5.08D-05 at cycle   2 NSaved=   2.
 NSaved= 2 IEnMin= 2 EnMin= -669.536398906615     IErMin= 2 ErrMin= 5.08D-05
 ErrMax= 5.08D-05  0.00D+00 EMaxC= 1.00D-01 BMatC= 1.25D-07 BMatP= 3.75D-07
 IDIUse=1 WtCom= 1.00D+00 WtEn= 0.00D+00
 Coeff-Com:  0.634D-01 0.937D+00
 Coeff:      0.634D-01 0.937D+00
 Gap=     0.413 Goal=   None    Shift=    0.000
 RMSDP=2.23D-06 MaxDP=7.94D-05 DE=-1.02D-06 OVMax= 3.60D-04

 Cycle  10  Pass 1  IDiag  1:
 RMSU=  2.04D-06    CP:  1.00D+00  1.09D+00
 E= -669.536399304362     Delta-E=       -0.000000397747 Rises=F Damp=F
 DIIS: error= 2.70D-05 at cycle   3 NSaved=   3.
 NSaved= 3 IEnMin= 3 EnMin= -669.536399304362     IErMin= 3 ErrMin= 2.70D-05
 ErrMax= 2.70D-05  0.00D+00 EMaxC= 1.00D-01 BMatC= 6.03D-08 BMatP= 1.25D-07
 IDIUse=1 WtCom= 1.00D+00 WtEn= 0.00D+00
 Coeff-Com: -0.375D+00 0.168D+00 0.121D+01
 Coeff:     -0.375D+00 0.168D+00 0.121D+01
 Gap=     0.413 Goal=   None    Shift=    0.000
 RMSDP=2.51D-06 MaxDP=6.86D-05 DE=-3.98D-07 OVMax= 3.61D-04

 Cycle  11  Pass 1  IDiag  1:
 RMSU=  1.55D-06    CP:  1.00D+00  1.19D+00  1.82D+00
 E= -669.536399593730     Delta-E=       -0.000000289368 Rises=F Damp=F
 DIIS: error= 1.14D-05 at cycle   4 NSaved=   4.
 NSaved= 4 IEnMin= 4 EnMin= -669.536399593730     IErMin= 4 ErrMin= 1.14D-05
 ErrMax= 1.14D-05  0.00D+00 EMaxC= 1.00D-01 BMatC= 1.04D-08 BMatP= 6.03D-08
 IDIUse=1 WtCom= 1.00D+00 WtEn= 0.00D+00
 Coeff-Com: -0.572D-01-0.267D+00 0.991D-01 0.123D+01
 Coeff:     -0.572D-01-0.267D+00 0.991D-01 0.123D+01
 Gap=     0.413 Goal=   None    Shift=    0.000
 RMSDP=1.51D-06 MaxDP=4.13D-05 DE=-2.89D-07 OVMax= 2.20D-04

 Cycle  12  Pass 1  IDiag  1:
 RMSU=  3.38D-07    CP:  1.00D+00  1.22D+00  2.44D+00  1.43D+00
 E= -669.536399651946     Delta-E=       -0.000000058216 Rises=F Damp=F
 DIIS: error= 3.63D-06 at cycle   5 NSaved=   5.
 NSaved= 5 IEnMin= 5 EnMin= -669.536399651946     IErMin= 5 ErrMin= 3.63D-06
 ErrMax= 3.63D-06  0.00D+00 EMaxC= 1.00D-01 BMatC= 1.70D-09 BMatP= 1.04D-08
 IDIUse=1 WtCom= 1.00D+00 WtEn= 0.00D+00
 Coeff-Com:  0.218D-01-0.132D+00-0.102D+00 0.518D+00 0.694D+00
 Coeff:      0.218D-01-0.132D+00-0.102D+00 0.518D+00 0.694D+00
 Gap=     0.413 Goal=   None    Shift=    0.000
 RMSDP=2.64D-07 MaxDP=8.54D-06 DE=-5.82D-08 OVMax= 4.25D-05

 Cycle  13  Pass 1  IDiag  1:
 RMSU=  1.01D-07    CP:  1.00D+00  1.22D+00  2.54D+00  1.51D+00  8.09D-01
 E= -669.536399654609     Delta-E=       -0.000000002663 Rises=F Damp=F
 DIIS: error= 5.64D-07 at cycle   6 NSaved=   6.
 NSaved= 6 IEnMin= 6 EnMin= -669.536399654609     IErMin= 6 ErrMin= 5.64D-07
 ErrMax= 5.64D-07  0.00D+00 EMaxC= 1.00D-01 BMatC= 4.48D-11 BMatP= 1.70D-09
 IDIUse=1 WtCom= 1.00D+00 WtEn= 0.00D+00
 Coeff-Com: -0.675D-03 0.393D-01 0.146D-01-0.166D+00-0.151D+00 0.126D+01
 Coeff:     -0.675D-03 0.393D-01 0.146D-01-0.166D+00-0.151D+00 0.126D+01
 Gap=     0.413 Goal=   None    Shift=    0.000
 RMSDP=5.84D-08 MaxDP=1.60D-06 DE=-2.66D-09 OVMax= 5.85D-06

 Cycle  14  Pass 1  IDiag  1:
 RMSU=  2.90D-08    CP:  1.00D+00  1.22D+00  2.55D+00  1.52D+00  8.82D-01
                    CP:  1.35D+00
 E= -669.536399654729     Delta-E=       -0.000000000121 Rises=F Damp=F
 DIIS: error= 2.51D-07 at cycle   7 NSaved=   7.
 NSaved= 7 IEnMin= 7 EnMin= -669.536399654729     IErMin= 7 ErrMin= 2.51D-07
 ErrMax= 2.51D-07  0.00D+00 EMaxC= 1.00D-01 BMatC= 7.59D-12 BMatP= 4.48D-11
 IDIUse=1 WtCom= 1.00D+00 WtEn= 0.00D+00
 Coeff-Com: -0.287D-02 0.239D-01 0.157D-01-0.975D-01-0.125D+00 0.261D+00
 Coeff-Com:  0.925D+00
 Coeff:     -0.287D-02 0.239D-01 0.157D-01-0.975D-01-0.125D+00 0.261D+00
 Coeff:      0.925D+00
 Gap=     0.413 Goal=   None    Shift=    0.000
 RMSDP=1.94D-08 MaxDP=8.17D-07 DE=-1.21D-10 OVMax= 2.38D-06

 Cycle  15  Pass 1  IDiag  1:
 RMSU=  1.03D-08    CP:  1.00D+00  1.22D+00  2.55D+00  1.53D+00  8.90D-01
                    CP:  1.47D+00  1.14D+00
 E= -669.536399654755     Delta-E=       -0.000000000025 Rises=F Damp=F
 DIIS: error= 9.72D-08 at cycle   8 NSaved=   8.
 NSaved= 8 IEnMin= 8 EnMin= -669.536399654755     IErMin= 8 ErrMin= 9.72D-08
 ErrMax= 9.72D-08  0.00D+00 EMaxC= 1.00D-01 BMatC= 1.36D-12 BMatP= 7.59D-12
 IDIUse=1 WtCom= 1.00D+00 WtEn= 0.00D+00
 Coeff-Com: -0.283D-03-0.191D-02 0.849D-03 0.796D-02-0.292D-02-0.120D+00
 Coeff-Com:  0.152D+00 0.964D+00
 Coeff:     -0.283D-03-0.191D-02 0.849D-03 0.796D-02-0.292D-02-0.120D+00
 Coeff:      0.152D+00 0.964D+00
 Gap=     0.413 Goal=   None    Shift=    0.000
 RMSDP=6.71D-09 MaxDP=3.34D-07 DE=-2.55D-11 OVMax= 5.53D-07

 SCF Done:  E(RHF) =  -669.536399655     A.U. after   15 cycles
            NFock= 15  Conv=0.67D-08     -V/T= 2.0024
 KE= 6.679550210364D+02 PE=-3.403884497555D+03 EE= 1.146155198463D+03
 Leave Link  502 at Wed May  5 23:49:18 2021, MaxMem=   524288000 cpu:              96.6 elap:              50.1
 (Enter /opt/gaussian/g16_legacy/l801.exe)
 ExpMin= 1.61D-01 ExpMax= 5.48D+03 ExpMxC= 8.25D+02 IAcc=3 IRadAn=         5 AccDes= 0.00D+00
 HarFok:  IExCor=  205 AccDes= 0.00D+00 IRadAn=         5 IDoV=-2 UseB2=F ITyADJ=14
 ICtDFT= 12500011 ScaDFX=  1.000000  1.000000  1.000000  1.000000
 Largest valence mixing into a core orbital is  1.96D-04
 Largest core mixing into a valence orbital is  4.00D-05
 Range of M.O.s used for correlation:    16   263
 NBasis=   263 NAE=    57 NBE=    57 NFC=    15 NFV=     0
 NROrb=    248 NOA=    42 NOB=    42 NVA=   206 NVB=   206
 Leave Link  801 at Wed May  5 23:49:19 2021, MaxMem=   524288000 cpu:               2.1 elap:               1.4
 (Enter /opt/gaussian/g16_legacy/l906.exe)
 FulOut=F Deriv=F AODrv=F NAtomX=    34
   MMem=         113  MDisk=          42 MDiskD=          42
  W3Min=     2275476 MinDsk=     2420380 NBas6D=         263
 NBas2D=       35121    NTT=       34716    LW2=     2000000
    MDV=   523939317 MDiskM=       27563 NBas2p=       24812
 Fully direct method using O(OVN) memory.
 IMap=   1   2   3   4   5   6   7   8   9  10  11  12  13  14  15  16  17  18  19  20
 IMap=  21  22  23  24  25  26  27  28  29  30  31  32  33  34  35  36  37  38  39  40
 IMap=  41  42
 JobTyp=1 Pass  1:  I=   1 to  42 NPSUse=  2 ParTrn=T ParDer=T DoDerP=F.
 Spin components of T(2) and E(2):
     alpha-alpha T2 =       0.9496858235D-01 E2=     -0.2720049015D+00
     alpha-beta  T2 =       0.5261168240D+00 E2=     -0.1547857909D+01
     beta-beta   T2 =       0.9496858235D-01 E2=     -0.2720049015D+00
 The integrals were generated   1 times.
 ANorm=    0.1309982438D+01
 E2 =    -0.2091867712D+01 EUMP2 =    -0.67162826736708D+03
 Leave Link  906 at Wed May  5 23:50:23 2021, MaxMem=   524288000 cpu:             125.8 elap:              63.8
 (Enter /opt/gaussian/g16_legacy/l601.exe)
 Copying SCF densities to generalized density rwf, IOpCl= 0 IROHF=0.

 **********************************************************************

            Population analysis using the SCF density.

 **********************************************************************

 Orbital symmetries:
       Occupied  (A) (A) (A) (A) (A) (A) (A) (A) (A) (A) (A) (A)
                 (A) (A) (A) (A) (A) (A) (A) (A) (A) (A) (A) (A)
                 (A) (A) (A) (A) (A) (A) (A) (A) (A) (A) (A) (A)
                 (A) (A) (A) (A) (A) (A) (A) (A) (A) (A) (A) (A)
                 (A) (A) (A) (A) (A) (A) (A) (A) (A)
       Virtual   (A) (A) (A) (A) (A) (A) (A) (A) (A) (A) (A) (A)
                 (A) (A) (A) (A) (A) (A) (A) (A) (A) (A) (A) (A)
                 (A) (A) (A) (A) (A) (A) (A) (A) (A) (A) (A) (A)
                 (A) (A) (A) (A) (A) (A) (A) (A) (A) (A) (A) (A)
                 (A) (A) (A) (A) (A) (A) (A) (A) (A) (A) (A) (A)
                 (A) (A) (A) (A) (A) (A) (A) (A) (A) (A) (A) (A)
                 (A) (A) (A) (A) (A) (A) (A) (A) (A) (A) (A) (A)
                 (A) (A) (A) (A) (A) (A) (A) (A) (A) (A) (A) (A)
                 (A) (A) (A) (A) (A) (A) (A) (A) (A) (A) (A) (A)
                 (A) (A) (A) (A) (A) (A) (A) (A) (A) (A) (A) (A)
                 (A) (A) (A) (A) (A) (A) (A) (A) (A) (A) (A) (A)
                 (A) (A) (A) (A) (A) (A) (A) (A) (A) (A) (A) (A)
                 (A) (A) (A) (A) (A) (A) (A) (A) (A) (A) (A) (A)
                 (A) (A) (A) (A) (A) (A) (A) (A) (A) (A) (A) (A)
                 (A) (A) (A) (A) (A) (A) (A) (A) (A) (A) (A) (A)
                 (A) (A) (A) (A) (A) (A) (A) (A) (A) (A) (A) (A)
                 (A) (A) (A) (A) (A) (A) (A) (A) (A) (A) (A) (A)
                 (A) (A)
 The electronic state is 1-A.
 Alpha  occ. eigenvalues --  -20.61032 -20.61025 -15.86054 -11.31340 -11.27904
 Alpha  occ. eigenvalues --  -11.27892 -11.27624 -11.26898 -11.26888 -11.21112
 Alpha  occ. eigenvalues --  -11.20882 -11.20456 -11.20392 -11.20280 -11.20068
 Alpha  occ. eigenvalues --   -1.60081  -1.39640  -1.19503  -1.08912  -1.07556
 Alpha  occ. eigenvalues --   -1.04895  -1.02745  -0.95762  -0.95231  -0.86297
 Alpha  occ. eigenvalues --   -0.86262  -0.82601  -0.78808  -0.77683  -0.77263
 Alpha  occ. eigenvalues --   -0.72281  -0.71387  -0.70613  -0.65165  -0.64898
 Alpha  occ. eigenvalues --   -0.64180  -0.62245  -0.60151  -0.58631  -0.56807
 Alpha  occ. eigenvalues --   -0.55399  -0.54539  -0.53225  -0.52987  -0.51972
 Alpha  occ. eigenvalues --   -0.51657  -0.49257  -0.49030  -0.49008  -0.47120
 Alpha  occ. eigenvalues --   -0.45832  -0.45174  -0.44859  -0.44522  -0.42960
 Alpha  occ. eigenvalues --   -0.37476  -0.36493
 Alpha virt. eigenvalues --    0.04843   0.11145   0.16336   0.20592   0.23216
 Alpha virt. eigenvalues --    0.24736   0.26331   0.27471   0.27884   0.28686
 Alpha virt. eigenvalues --    0.29308   0.31020   0.31565   0.32244   0.32731
 Alpha virt. eigenvalues --    0.33309   0.34040   0.34857   0.35015   0.35585
 Alpha virt. eigenvalues --    0.36467   0.36850   0.37214   0.38637   0.40414
 Alpha virt. eigenvalues --    0.41455   0.43720   0.44408   0.46088   0.46205
 Alpha virt. eigenvalues --    0.46527   0.48700   0.49794   0.51046   0.57288
 Alpha virt. eigenvalues --    0.67214   0.68729   0.69990   0.70209   0.70400
 Alpha virt. eigenvalues --    0.71745   0.72425   0.75736   0.77246   0.77814
 Alpha virt. eigenvalues --    0.78378   0.78844   0.79217   0.79525   0.79765
 Alpha virt. eigenvalues --    0.80645   0.81496   0.81802   0.84633   0.85763
 Alpha virt. eigenvalues --    0.87487   0.87730   0.87838   0.88670   0.93499
 Alpha virt. eigenvalues --    0.96391   0.96757   0.97124   0.99381   1.00279
 Alpha virt. eigenvalues --    1.01126   1.02520   1.03774   1.05964   1.06682
 Alpha virt. eigenvalues --    1.08036   1.08313   1.08514   1.08544   1.11853
 Alpha virt. eigenvalues --    1.13732   1.14443   1.15422   1.16584   1.17218
 Alpha virt. eigenvalues --    1.17676   1.18153   1.19301   1.19669   1.20448
 Alpha virt. eigenvalues --    1.21324   1.21932   1.22274   1.22701   1.22946
 Alpha virt. eigenvalues --    1.23502   1.24763   1.25555   1.26870   1.26922
 Alpha virt. eigenvalues --    1.27440   1.28931   1.30629   1.31392   1.36050
 Alpha virt. eigenvalues --    1.39598   1.40513   1.43088   1.46982   1.47734
 Alpha virt. eigenvalues --    1.53147   1.53661   1.56484   1.60705   1.65285
 Alpha virt. eigenvalues --    1.66371   1.66994   1.67283   1.68136   1.68269
 Alpha virt. eigenvalues --    1.72095   1.72530   1.73161   1.73374   1.73623
 Alpha virt. eigenvalues --    1.75387   1.80365   1.82003   1.93585   1.97468
 Alpha virt. eigenvalues --    1.99137   1.99855   2.04340   2.04425   2.06346
 Alpha virt. eigenvalues --    2.09890   2.12270   2.13004   2.14028   2.15597
 Alpha virt. eigenvalues --    2.18633   2.21472   2.21573   2.23283   2.24517
 Alpha virt. eigenvalues --    2.26531   2.26559   2.27090   2.28422   2.32683
 Alpha virt. eigenvalues --    2.33641   2.34731   2.36001   2.36793   2.37511
 Alpha virt. eigenvalues --    2.40369   2.42774   2.43361   2.43916   2.44490
 Alpha virt. eigenvalues --    2.45543   2.46783   2.57472   2.57642   2.57945
 Alpha virt. eigenvalues --    2.58450   2.59400   2.60361   2.67462   2.68452
 Alpha virt. eigenvalues --    2.68622   2.70097   2.77902   2.78493   2.80704
 Alpha virt. eigenvalues --    2.81318   2.83304   2.91594   2.91792   2.92079
 Alpha virt. eigenvalues --    2.92230   2.95871   2.99345   2.99716   3.04521
 Alpha virt. eigenvalues --    3.04651   3.06752   3.10267   3.14590   3.19517
 Alpha virt. eigenvalues --    3.23659   3.25628   3.30717   3.43283   3.52796
 Alpha virt. eigenvalues --    3.76830   4.12859   4.29540   4.37895   4.47814
 Alpha virt. eigenvalues --    4.50553   4.52806   4.57036   4.63216   4.71756
 Alpha virt. eigenvalues --    4.73329   4.76634   4.80793   4.88924   5.01617
 Alpha virt. eigenvalues --    5.08852
          Condensed to atoms (all electrons):
               1          2          3          4          5          6
     1  C    4.875548   0.542467  -0.045780  -0.028551  -0.045669   0.542453
     2  C    0.542467   4.931830   0.523203  -0.040245  -0.030065  -0.043799
     3  C   -0.045780   0.523203   4.918054   0.548780  -0.052881  -0.030038
     4  C   -0.028551  -0.040245   0.548780   4.821381   0.547958  -0.040015
     5  C   -0.045669  -0.030065  -0.052881   0.547958   4.920542   0.522528
     6  C    0.542453  -0.043799  -0.030038  -0.040015   0.522528   4.932298
     7  H    0.381302  -0.027964   0.002170   0.000218   0.002181  -0.027940
     8  H   -0.027636   0.382555  -0.027324   0.001565   0.000203   0.002329
     9  H    0.001929  -0.023993   0.368540  -0.019692   0.002569  -0.000064
    10  H    0.001906  -0.000054   0.002557  -0.019592   0.368098  -0.024027
    11  H   -0.027549   0.002328   0.000204   0.001541  -0.027315   0.382550
    12  N    0.000006   0.001501  -0.044431   0.243260  -0.044584   0.001508
    13  O   -0.000005  -0.000027   0.003651  -0.086881   0.004229   0.000796
    14  O   -0.000004   0.000770   0.003835  -0.087734   0.003725  -0.000028
    15  C   -0.000000   0.000000  -0.000000  -0.000000   0.000001   0.000000
    16  C   -0.000000  -0.000000   0.000000  -0.000001   0.000000   0.000000
    17  C    0.000000   0.000000  -0.000000   0.000000  -0.000000  -0.000000
    18  H    0.000000   0.000000  -0.000000  -0.000000   0.000000  -0.000000
    19  H    0.000000  -0.000000   0.000000   0.000000  -0.000000   0.000000
    20  H    0.000000   0.000000  -0.000000   0.000006  -0.000001  -0.000000
    21  H    0.000000  -0.000000  -0.000000  -0.000000  -0.000000   0.000000
    22  H   -0.000000  -0.000000   0.000000  -0.000000   0.000000   0.000000
    23  H    0.000000  -0.000000   0.000000  -0.000000  -0.000000   0.000000
    24  H    0.000000  -0.000000   0.000000  -0.000000  -0.000000  -0.000000
    25  C    0.000000  -0.000000   0.000000   0.000001  -0.000028  -0.000000
    26  C    0.000000   0.000000  -0.000000   0.000000   0.000002   0.000000
    27  C    0.000000   0.000000   0.000000  -0.000000  -0.000045  -0.000003
    28  H    0.000000  -0.000000  -0.000000  -0.000021  -0.000052   0.000003
    29  H   -0.000000   0.000000  -0.000000  -0.000000   0.000001   0.000000
    30  H    0.000000  -0.000000   0.000000  -0.000000  -0.000000  -0.000000
    31  H    0.000000  -0.000000   0.000000  -0.000000  -0.000000  -0.000000
    32  H   -0.000000   0.000000  -0.000000  -0.000000   0.000000   0.000000
    33  H    0.000000  -0.000000   0.000000   0.000005   0.000150   0.000019
    34  H   -0.000000   0.000000  -0.000000   0.000000   0.000000   0.000000
               7          8          9         10         11         12
     1  C    0.381302  -0.027636   0.001929   0.001906  -0.027549   0.000006
     2  C   -0.027964   0.382555  -0.023993  -0.000054   0.002328   0.001501
     3  C    0.002170  -0.027324   0.368540   0.002557   0.000204  -0.044431
     4  C    0.000218   0.001565  -0.019692  -0.019592   0.001541   0.243260
     5  C    0.002181   0.000203   0.002569   0.368098  -0.027315  -0.044584
     6  C   -0.027940   0.002329  -0.000064  -0.024027   0.382550   0.001508
     7  H    0.446280  -0.001192  -0.000071  -0.000071  -0.001191   0.000002
     8  H   -0.001192   0.446718  -0.001108   0.000007  -0.000093  -0.000049
     9  H   -0.000071  -0.001108   0.392360  -0.000075   0.000007  -0.005373
    10  H   -0.000071   0.000007  -0.000075   0.392288  -0.001085  -0.005253
    11  H   -0.001191  -0.000093   0.000007  -0.001085   0.446291  -0.000049
    12  N    0.000002  -0.000049  -0.005373  -0.005253  -0.000049   5.740744
    13  O    0.000000   0.000000   0.000045   0.008168  -0.000001   0.305249
    14  O    0.000000  -0.000001   0.008980   0.000040   0.000000   0.314011
    15  C   -0.000000   0.000000  -0.000000  -0.000003   0.000000  -0.000000
    16  C   -0.000000   0.000000   0.000000   0.000000   0.000000   0.000012
    17  C    0.000000  -0.000000  -0.000000  -0.000000  -0.000000  -0.000000
    18  H   -0.000000   0.000000  -0.000000  -0.000000   0.000000   0.000000
    19  H    0.000000  -0.000000   0.000000   0.000000  -0.000000   0.000000
    20  H    0.000000  -0.000000   0.000000  -0.000000  -0.000000  -0.000031
    21  H    0.000000  -0.000000   0.000000   0.000000  -0.000000  -0.000000
    22  H   -0.000000   0.000000   0.000000   0.000000  -0.000000   0.000000
    23  H    0.000000   0.000000   0.000000   0.000000  -0.000000  -0.000000
    24  H   -0.000000   0.000000   0.000000   0.000000  -0.000000  -0.000000
    25  C    0.000000  -0.000000   0.000000   0.000063  -0.000000   0.000025
    26  C   -0.000000  -0.000000  -0.000000  -0.000009  -0.000000  -0.000000
    27  C    0.000000  -0.000000   0.000000   0.000028   0.000000  -0.000000
    28  H    0.000000  -0.000000   0.000000   0.000415  -0.000000  -0.000035
    29  H   -0.000000   0.000000  -0.000000  -0.000002   0.000000  -0.000000
    30  H    0.000000  -0.000000   0.000000   0.000000  -0.000000  -0.000000
    31  H    0.000000  -0.000000   0.000000   0.000000   0.000000   0.000000
    32  H   -0.000000   0.000000  -0.000000  -0.000001  -0.000000   0.000000
    33  H   -0.000000  -0.000000  -0.000000   0.000270   0.000002  -0.000000
    34  H   -0.000000   0.000000  -0.000000  -0.000001   0.000000  -0.000000
              13         14         15         16         17         18
     1  C   -0.000005  -0.000004  -0.000000  -0.000000   0.000000   0.000000
     2  C   -0.000027   0.000770   0.000000  -0.000000   0.000000   0.000000
     3  C    0.003651   0.003835  -0.000000   0.000000  -0.000000  -0.000000
     4  C   -0.086881  -0.087734  -0.000000  -0.000001   0.000000  -0.000000
     5  C    0.004229   0.003725   0.000001   0.000000  -0.000000   0.000000
     6  C    0.000796  -0.000028   0.000000   0.000000  -0.000000  -0.000000
     7  H    0.000000   0.000000  -0.000000  -0.000000   0.000000  -0.000000
     8  H    0.000000  -0.000001   0.000000   0.000000  -0.000000   0.000000
     9  H    0.000045   0.008980  -0.000000   0.000000  -0.000000  -0.000000
    10  H    0.008168   0.000040  -0.000003   0.000000  -0.000000  -0.000000
    11  H   -0.000001   0.000000   0.000000   0.000000  -0.000000   0.000000
    12  N    0.305249   0.314011  -0.000000   0.000012  -0.000000   0.000000
    13  O    8.313386  -0.087179   0.000019  -0.000383   0.000002  -0.000001
    14  O   -0.087179   8.301660   0.000000  -0.000000   0.000000   0.000000
    15  C    0.000019   0.000000   5.080742   0.351376  -0.057330   0.395386
    16  C   -0.000383  -0.000000   0.351376   5.068919   0.338239  -0.041512
    17  C    0.000002   0.000000  -0.057330   0.338239   5.100148  -0.002975
    18  H   -0.000001   0.000000   0.395386  -0.041512  -0.002975   0.571565
    19  H   -0.000000   0.000000   0.395729  -0.042260  -0.002973  -0.032222
    20  H    0.001966   0.000002  -0.041609   0.400838  -0.038457  -0.002807
    21  H   -0.000001   0.000000  -0.044227   0.398899  -0.040522   0.004596
    22  H   -0.000000  -0.000000  -0.003838  -0.039015   0.389997   0.000174
    23  H   -0.000000  -0.000000  -0.003873  -0.038843   0.390823   0.002666
    24  H   -0.000000  -0.000000   0.004407  -0.035644   0.394386  -0.000060
    25  C   -0.000826  -0.000000   0.355036  -0.051072   0.004096  -0.041739
    26  C    0.000009  -0.000000  -0.051865   0.003995  -0.000086  -0.003458
    27  C   -0.000000   0.000000   0.004097  -0.000084   0.000001  -0.000053
    28  H    0.003305   0.000003  -0.039416  -0.003024  -0.000037  -0.002650
    29  H    0.000002   0.000000  -0.041685  -0.003202  -0.000052   0.004482
    30  H   -0.000000   0.000000  -0.003173  -0.000067  -0.000001   0.002444
    31  H   -0.000000  -0.000000  -0.003092  -0.000071  -0.000000   0.000251
    32  H   -0.000000   0.000000  -0.000071  -0.000001  -0.000000  -0.000001
    33  H   -0.000005  -0.000000  -0.000073  -0.000001  -0.000000   0.000014
    34  H    0.000000  -0.000000  -0.000088   0.000001  -0.000000   0.000001
              19         20         21         22         23         24
     1  C    0.000000   0.000000   0.000000  -0.000000   0.000000   0.000000
     2  C   -0.000000   0.000000  -0.000000  -0.000000  -0.000000  -0.000000
     3  C    0.000000  -0.000000  -0.000000   0.000000   0.000000   0.000000
     4  C    0.000000   0.000006  -0.000000  -0.000000  -0.000000  -0.000000
     5  C   -0.000000  -0.000001  -0.000000   0.000000  -0.000000  -0.000000
     6  C    0.000000  -0.000000   0.000000   0.000000   0.000000  -0.000000
     7  H    0.000000   0.000000   0.000000  -0.000000   0.000000  -0.000000
     8  H   -0.000000  -0.000000  -0.000000   0.000000   0.000000   0.000000
     9  H    0.000000   0.000000   0.000000   0.000000   0.000000   0.000000
    10  H    0.000000  -0.000000   0.000000   0.000000   0.000000   0.000000
    11  H   -0.000000  -0.000000  -0.000000  -0.000000  -0.000000  -0.000000
    12  N    0.000000  -0.000031  -0.000000   0.000000  -0.000000  -0.000000
    13  O   -0.000000   0.001966  -0.000001  -0.000000  -0.000000  -0.000000
    14  O    0.000000   0.000002   0.000000  -0.000000  -0.000000  -0.000000
    15  C    0.395729  -0.041609  -0.044227  -0.003838  -0.003873   0.004407
    16  C   -0.042260   0.400838   0.398899  -0.039015  -0.038843  -0.035644
    17  C   -0.002973  -0.038457  -0.040522   0.389997   0.390823   0.394386
    18  H   -0.032222  -0.002807   0.004596   0.000174   0.002666  -0.000060
    19  H    0.575067   0.004345  -0.002951   0.002725   0.000171  -0.000063
    20  H    0.004345   0.531556  -0.029709   0.004040  -0.002775  -0.002422
    21  H   -0.002951  -0.029709   0.566566  -0.002879   0.004256  -0.002517
    22  H    0.002725   0.004040  -0.002879   0.556377  -0.029756  -0.027919
    23  H    0.000171  -0.002775   0.004256  -0.029756   0.552614  -0.027550
    24  H   -0.000063  -0.002422  -0.002517  -0.027919  -0.027550   0.537378
    25  C   -0.042482  -0.003053  -0.003303  -0.000077  -0.000073  -0.000086
    26  C   -0.003519  -0.000046  -0.000062  -0.000000  -0.000000   0.000001
    27  C   -0.000054  -0.000000  -0.000000  -0.000000  -0.000000  -0.000000
    28  H    0.004272   0.001670   0.000258  -0.000002   0.000013   0.000001
    29  H   -0.002766   0.000254   0.002363   0.000014  -0.000001   0.000001
    30  H    0.000250   0.000017  -0.000003   0.000000  -0.000002   0.000000
    31  H    0.002489  -0.000004   0.000017  -0.000002   0.000000   0.000000
    32  H    0.000014   0.000000  -0.000002   0.000000  -0.000000  -0.000000
    33  H   -0.000001  -0.000002   0.000000  -0.000000   0.000000  -0.000000
    34  H    0.000001   0.000000   0.000000  -0.000000  -0.000000   0.000000
              25         26         27         28         29         30
     1  C    0.000000   0.000000   0.000000   0.000000  -0.000000   0.000000
     2  C   -0.000000   0.000000   0.000000  -0.000000   0.000000  -0.000000
     3  C    0.000000  -0.000000   0.000000  -0.000000  -0.000000   0.000000
     4  C    0.000001   0.000000  -0.000000  -0.000021  -0.000000  -0.000000
     5  C   -0.000028   0.000002  -0.000045  -0.000052   0.000001  -0.000000
     6  C   -0.000000   0.000000  -0.000003   0.000003   0.000000  -0.000000
     7  H    0.000000  -0.000000   0.000000   0.000000  -0.000000   0.000000
     8  H   -0.000000  -0.000000  -0.000000  -0.000000   0.000000  -0.000000
     9  H    0.000000  -0.000000   0.000000   0.000000  -0.000000   0.000000
    10  H    0.000063  -0.000009   0.000028   0.000415  -0.000002   0.000000
    11  H   -0.000000  -0.000000   0.000000  -0.000000   0.000000  -0.000000
    12  N    0.000025  -0.000000  -0.000000  -0.000035  -0.000000  -0.000000
    13  O   -0.000826   0.000009  -0.000000   0.003305   0.000002  -0.000000
    14  O   -0.000000  -0.000000   0.000000   0.000003   0.000000   0.000000
    15  C    0.355036  -0.051865   0.004097  -0.039416  -0.041685  -0.003173
    16  C   -0.051072   0.003995  -0.000084  -0.003024  -0.003202  -0.000067
    17  C    0.004096  -0.000086   0.000001  -0.000037  -0.000052  -0.000001
    18  H   -0.041739  -0.003458  -0.000053  -0.002650   0.004482   0.002444
    19  H   -0.042482  -0.003519  -0.000054   0.004272  -0.002766   0.000250
    20  H   -0.003053  -0.000046  -0.000000   0.001670   0.000254   0.000017
    21  H   -0.003303  -0.000062  -0.000000   0.000258   0.002363  -0.000003
    22  H   -0.000077  -0.000000  -0.000000  -0.000002   0.000014   0.000000
    23  H   -0.000073  -0.000000  -0.000000   0.000013  -0.000001  -0.000002
    24  H   -0.000086   0.000001  -0.000000   0.000001   0.000001   0.000000
    25  C    5.096685   0.348943  -0.057551   0.396939   0.395970  -0.043623
    26  C    0.348943   5.065313   0.341024  -0.041448  -0.042655   0.398467
    27  C   -0.057551   0.341024   5.097676  -0.002924  -0.002983  -0.040563
    28  H    0.396939  -0.041448  -0.002924   0.539526  -0.029932  -0.002879
    29  H    0.395970  -0.042655  -0.002983  -0.029932   0.568134   0.004617
    30  H   -0.043623   0.398467  -0.040563  -0.002879   0.004617   0.569543
    31  H   -0.043086   0.398376  -0.040175   0.004370  -0.002964  -0.031845
    32  H   -0.003639  -0.038499   0.391706   0.000162   0.002624   0.004240
    33  H   -0.003532  -0.039397   0.389512   0.002547   0.000159  -0.002926
    34  H    0.004393  -0.036007   0.393583  -0.000054  -0.000057  -0.002497
              31         32         33         34
     1  C    0.000000  -0.000000   0.000000  -0.000000
     2  C   -0.000000   0.000000  -0.000000   0.000000
     3  C    0.000000  -0.000000   0.000000  -0.000000
     4  C   -0.000000  -0.000000   0.000005   0.000000
     5  C   -0.000000   0.000000   0.000150   0.000000
     6  C   -0.000000   0.000000   0.000019   0.000000
     7  H    0.000000  -0.000000  -0.000000  -0.000000
     8  H   -0.000000   0.000000  -0.000000   0.000000
     9  H    0.000000  -0.000000  -0.000000  -0.000000
    10  H    0.000000  -0.000001   0.000270  -0.000001
    11  H    0.000000  -0.000000   0.000002   0.000000
    12  N    0.000000   0.000000  -0.000000  -0.000000
    13  O   -0.000000  -0.000000  -0.000005   0.000000
    14  O   -0.000000   0.000000  -0.000000  -0.000000
    15  C   -0.003092  -0.000071  -0.000073  -0.000088
    16  C   -0.000071  -0.000001  -0.000001   0.000001
    17  C   -0.000000  -0.000000  -0.000000  -0.000000
    18  H    0.000251  -0.000001   0.000014   0.000001
    19  H    0.002489   0.000014  -0.000001   0.000001
    20  H   -0.000004   0.000000  -0.000002   0.000000
    21  H    0.000017  -0.000002   0.000000   0.000000
    22  H   -0.000002   0.000000  -0.000000  -0.000000
    23  H    0.000000  -0.000000   0.000000  -0.000000
    24  H    0.000000  -0.000000  -0.000000   0.000000
    25  C   -0.043086  -0.003639  -0.003532   0.004393
    26  C    0.398376  -0.038499  -0.039397  -0.036007
    27  C   -0.040175   0.391706   0.389512   0.393583
    28  H    0.004370   0.000162   0.002547  -0.000054
    29  H   -0.002964   0.002624   0.000159  -0.000057
    30  H   -0.031845   0.004240  -0.002926  -0.002497
    31  H    0.566208  -0.002872   0.004314  -0.002539
    32  H   -0.002872   0.546770  -0.029295  -0.027659
    33  H    0.004314  -0.029295   0.559876  -0.028432
    34  H   -0.002539  -0.027659  -0.028432   0.542351
 Mulliken charges:
               1
     1  C   -0.170419
     2  C   -0.218507
     3  C   -0.170538
     4  C    0.158018
     5  C   -0.171547
     6  C   -0.218569
     7  H    0.226276
     8  H    0.224026
     9  H    0.275946
    10  H    0.276332
    11  H    0.224360
    12  N    0.493490
    13  O   -0.465515
    14  O   -0.458079
    15  C   -0.296447
    16  C   -0.307099
    17  C   -0.475258
    18  H    0.145900
    19  H    0.144230
    20  H    0.176225
    21  H    0.149221
    22  H    0.150163
    23  H    0.152330
    24  H    0.160088
    25  C   -0.307981
    26  C   -0.299077
    27  C   -0.473189
    28  H    0.168991
    29  H    0.147681
    30  H    0.148000
    31  H    0.150626
    32  H    0.156522
    33  H    0.146795
    34  H    0.157004
 Sum of Mulliken charges =  -0.00000
 Mulliken charges with hydrogens summed into heavy atoms:
               1
     1  C    0.055857
     2  C    0.005519
     3  C    0.105408
     4  C    0.158018
     5  C    0.104785
     6  C    0.005791
    12  N    0.493490
    13  O   -0.465515
    14  O   -0.458079
    15  C   -0.006316
    16  C    0.018347
    17  C   -0.012677
    25  C    0.008690
    26  C   -0.000451
    27  C   -0.012868
 Electronic spatial extent (au):  <R**2>=           6035.5021
 Charge=             -0.0000 electrons
 Dipole moment (field-independent basis, Debye):
    X=              4.2055    Y=              3.1862    Z=              0.7413  Tot=              5.3280
 Quadrupole moment (field-independent basis, Debye-Ang):
   XX=            -74.9584   YY=            -98.2433   ZZ=            -93.8675
   XY=              3.6892   XZ=              1.1528   YZ=              1.6698
 Traceless Quadrupole moment (field-independent basis, Debye-Ang):
   XX=             14.0647   YY=             -9.2203   ZZ=             -4.8444
   XY=              3.6892   XZ=              1.1528   YZ=              1.6698
 Octapole moment (field-independent basis, Debye-Ang**2):
  XXX=            131.8201  YYY=              5.9274  ZZZ=             -3.2891  XYY=             13.4321
  XXY=             12.0865  XXZ=            -14.6585  XZZ=             -2.1927  YZZ=             -3.1094
  YYZ=             11.1334  XYZ=              8.7783
 Hexadecapole moment (field-independent basis, Debye-Ang**3):
 XXXX=          -5751.4359 YYYY=          -1842.8414 ZZZZ=           -294.1990 XXXY=             19.7590
 XXXZ=            -27.3382 YYYX=             26.5459 YYYZ=             14.3364 ZZZX=            -10.2062
 ZZZY=             11.4017 XXYY=          -1311.6982 XXZZ=          -1120.4251 YYZZ=           -349.6123
 XXYZ=             54.2825 YYXZ=             27.3513 ZZXY=             -6.5163
 N-N= 9.202378784005D+02 E-N=-3.403884492906D+03  KE= 6.679550210364D+02
 Leave Link  601 at Wed May  5 23:50:24 2021, MaxMem=   524288000 cpu:               0.7 elap:               0.9
 (Enter /opt/gaussian/g16_legacy/l9999.exe)
 1\1\GINC-TRUENO90\SP\RMP2-FC\6-31G(d)\C12H19N1O2\JRAMOS\05-May-2021\0\
 \#p 6-31g* mp2\\Input file generated by CHIRIPA (05-May-2021 14:55:21)
 \\0,1\C,0,1.914143,0.,0.\C,0,1.214143,1.211,0.\C,0,-0.183857,1.223,0.\
 C,0,-0.852857,0.,0.\C,0,-0.183857,-1.223,0.\C,0,1.214143,-1.211,0.\H,0
 ,3.000143,0.,0.\H,0,1.755143,2.153,0.\H,0,-0.750857,2.146,0.\H,0,-0.75
 0857,-2.146,0.\H,0,1.755143,-2.153,0.\N,0,-2.332857,0.,0.\O,0,-2.89885
 7,-1.091,0.\O,0,-2.898857,1.091,0.\C,0,-5.156493,-4.576145,1.524395\C,
 0,-6.079122,-3.431258,1.104905\C,0,-7.330883,-3.918199,0.374305\H,0,-4
 .863538,-5.147845,0.63317\H,0,-5.713418,-5.26854,2.170785\H,0,-5.52022
 5,-2.740498,0.460622\H,0,-6.369761,-2.862102,1.997209\H,0,-7.91273,-4.
 590518,1.013086\H,0,-7.058367,-4.468223,-0.532232\H,0,-7.976274,-3.083
 459,0.083547\C,0,-3.900764,-4.105248,2.255919\C,0,-2.978134,-5.250136,
 2.67541\C,0,-1.726373,-4.763195,3.40601\H,0,-3.343839,-3.412854,1.6095
 3\H,0,-4.193719,-3.533549,3.147145\H,0,-2.687495,-5.819291,1.783106\H,
 0,-3.537031,-5.940896,3.319693\H,0,-1.998889,-4.213171,4.312547\H,0,-1
 .144526,-4.090875,2.767229\H,0,-1.080982,-5.597935,3.696768\\Version=E
 M64L-G16RevA.03\State=1-A\HF=-669.5363997\MP2=-671.6282674\RMSD=6.711e
 -09\PG=C01 [X(C12H19N1O2)]\\@


 IT WAS A GAME, A VERY INTERESTING GAME ONE COULD
 PLAY.  WHENEVER ONE SOLVED ONE OF THE LITTLE PROBLEMS,
 ONE COULD WRITE A PAPER ABOUT IT.  IT WAS VERY EASY IN
 THOSE DAYS FOR ANY SECOND-RATE PHYSICIST TO DO
 FIRST-RATE WORK.  THERE HAS NOT BEEN SUCH A GLORIOUS
 TIME SINCE.  IT IS VERY DIFFICULT NOW FOR A FIRST-RATE
 PHYSICIST TO DO SECOND-RATE WORK.
     P.A.M. DIRAC, ON THE EARLY DAYS OF QUANTUM MECHANICS
                   DIRECTIONS IN PHYSICS, 1978, P. 7
 Job cpu time:       0 days  0 hours  4 minutes  3.4 seconds.
 Elapsed time:       0 days  0 hours  2 minutes  6.5 seconds.
 File lengths (MBytes):  RWF=     43 Int=      0 D2E=      0 Chk=      6 Scr=      1
 Normal termination of Gaussian 16 at Wed May  5 23:50:25 2021.
