 Entering Gaussian System, Link 0=/opt/gaussian/g16_legacy/g16
 Input=gaussian_03441_2_2.com
 Output=gaussian_03441_2_2.log
 Initial command:
 /opt/gaussian/g16_legacy/l1.exe "/scratch-local/jramos/2595541/Gau-22407.inp" -scrdir="/scratch-local/jramos/2595541/"
 Entering Link 1 = /opt/gaussian/g16_legacy/l1.exe PID=     22408.
  
 Copyright (c) 1988,1990,1992,1993,1995,1998,2003,2009,2016,
            Gaussian, Inc.  All Rights Reserved.
  
 This is part of the Gaussian(R) 16 program.  It is based on
 the Gaussian(R) 09 system (copyright 2009, Gaussian, Inc.),
 the Gaussian(R) 03 system (copyright 2003, Gaussian, Inc.),
 the Gaussian(R) 98 system (copyright 1998, Gaussian, Inc.),
 the Gaussian(R) 94 system (copyright 1995, Gaussian, Inc.),
 the Gaussian 92(TM) system (copyright 1992, Gaussian, Inc.),
 the Gaussian 90(TM) system (copyright 1990, Gaussian, Inc.),
 the Gaussian 88(TM) system (copyright 1988, Gaussian, Inc.),
 the Gaussian 86(TM) system (copyright 1986, Carnegie Mellon
 University), and the Gaussian 82(TM) system (copyright 1983,
 Carnegie Mellon University). Gaussian is a federally registered
 trademark of Gaussian, Inc.
  
 This software contains proprietary and confidential information,
 including trade secrets, belonging to Gaussian, Inc.
  
 This software is provided under written license and may be
 used, copied, transmitted, or stored only in accord with that
 written license.
  
 The following legend is applicable only to US Government
 contracts under FAR:
  
                    RESTRICTED RIGHTS LEGEND
  
 Use, reproduction and disclosure by the US Government is
 subject to restrictions as set forth in subparagraphs (a)
 and (c) of the Commercial Computer Software - Restricted
 Rights clause in FAR 52.227-19.
  
 Gaussian, Inc.
 340 Quinnipiac St., Bldg. 40, Wallingford CT 06492
  
  
 ---------------------------------------------------------------
 Warning -- This program may not be used in any manner that
 competes with the business of Gaussian, Inc. or will provide
 assistance to any competitor of Gaussian, Inc.  The licensee
 of this program is prohibited from giving any competitor of
 Gaussian, Inc. access to this program.  By using this program,
 the user acknowledges that Gaussian, Inc. is engaged in the
 business of creating and licensing software in the field of
 computational chemistry and represents and warrants to the
 licensee that it is not a competitor of Gaussian, Inc. and that
 it will not use this program in any manner prohibited above.
 ---------------------------------------------------------------
  

 Cite this work as:
 Gaussian 16, Revision A.03,
 M. J. Frisch, G. W. Trucks, H. B. Schlegel, G. E. Scuseria, 
 M. A. Robb, J. R. Cheeseman, G. Scalmani, V. Barone, 
 G. A. Petersson, H. Nakatsuji, X. Li, M. Caricato, A. V. Marenich, 
 J. Bloino, B. G. Janesko, R. Gomperts, B. Mennucci, H. P. Hratchian, 
 J. V. Ortiz, A. F. Izmaylov, J. L. Sonnenberg, D. Williams-Young, 
 F. Ding, F. Lipparini, F. Egidi, J. Goings, B. Peng, A. Petrone, 
 T. Henderson, D. Ranasinghe, V. G. Zakrzewski, J. Gao, N. Rega, 
 G. Zheng, W. Liang, M. Hada, M. Ehara, K. Toyota, R. Fukuda, 
 J. Hasegawa, M. Ishida, T. Nakajima, Y. Honda, O. Kitao, H. Nakai, 
 T. Vreven, K. Throssell, J. A. Montgomery, Jr., J. E. Peralta, 
 F. Ogliaro, M. J. Bearpark, J. J. Heyd, E. N. Brothers, K. N. Kudin, 
 V. N. Staroverov, T. A. Keith, R. Kobayashi, J. Normand, 
 K. Raghavachari, A. P. Rendell, J. C. Burant, S. S. Iyengar, 
 J. Tomasi, M. Cossi, J. M. Millam, M. Klene, C. Adamo, R. Cammi, 
 J. W. Ochterski, R. L. Martin, K. Morokuma, O. Farkas, 
 J. B. Foresman, and D. J. Fox, Gaussian, Inc., Wallingford CT, 2016.
 
 ******************************************
 Gaussian 16:  EM64L-G16RevA.03 25-Dec-2016
                 6-May-2021 
 ******************************************
 %chk=gaussian_03441_2_2.chk
 %nproc=2
 Will use up to    2 processors via shared memory.
 %mem=4000Mb
 -------------
 #p 6-31g* mp2
 -------------
 1/38=1,172=1/1;
 2/12=2,17=6,18=5,40=1/2;
 3/5=1,6=6,7=1,11=9,25=1,30=1/1,2,3;
 4//1;
 5/5=2,38=5/2;
 8/10=2/1;
 9/16=-3/6;
 6/7=2,8=2,9=2,10=2/1;
 99/5=1,9=1/99;
 Leave Link    1 at Thu May  6 08:15:50 2021, MaxMem=   524288000 cpu:               0.1 elap:               0.1
 (Enter /opt/gaussian/g16_legacy/l101.exe)
 ------------------------------------------------------
 Input file generated by CHIRIPA (05-May-2021 14:57:25)
 ------------------------------------------------------
 Symbolic Z-matrix:
 Charge =  0 Multiplicity = 1
 C                     1.91414   0.        0. 
 C                     1.21414   1.211     0. 
 C                    -0.18386   1.223     0. 
 C                    -0.85286   0.        0. 
 C                    -0.18386  -1.223     0. 
 C                     1.21414  -1.211     0. 
 H                     3.00014   0.        0. 
 H                     1.75514   2.153     0. 
 H                    -0.75086   2.146     0. 
 H                    -0.75086  -2.146     0. 
 H                     1.75514  -2.153     0. 
 N                    -2.33286   0.        0. 
 O                    -2.89886  -1.091     0. 
 O                    -2.89886   1.091     0. 
 C                     6.25496  -2.39549  -4.2474 
 C                     5.57949  -2.04013  -3.07523 
 C                     4.47057  -1.19019  -3.12466 
 C                     4.06249  -0.71186  -4.36883 
 C                     4.71459  -1.04765  -5.55428 
 C                     5.82112  -1.89899  -5.48101 
 H                     7.11546  -3.05629  -4.19975 
 H                     5.91418  -2.42421  -2.1158 
 H                     3.92922  -0.89897  -2.23272 
 H                     4.3574   -0.64887  -6.49598 
 H                     6.34376  -2.17328  -6.39296 
 N                     2.88979   0.18868  -4.43378 
 O                     2.55016   0.59665  -5.54231 
 O                     2.33248   0.4695   -3.37492 
 
 ITRead=  0  0  0  0  0  0  0  0  0  0  0  0  0  0  0  0  0  0  0  0
 ITRead=  0  0  0  0  0  0  0  0
 MicOpt= -1 -1 -1 -1 -1 -1 -1 -1 -1 -1 -1 -1 -1 -1 -1 -1 -1 -1 -1 -1
 MicOpt= -1 -1 -1 -1 -1 -1 -1 -1
 NAtoms=     28 NQM=       28 NQMF=       0 NMMI=      0 NMMIF=      0
                NMic=       0 NMicF=      0.
                    Isotopes and Nuclear Properties:
 (Nuclear quadrupole moments (NQMom) in fm**2, nuclear magnetic moments (NMagM)
  in nuclear magnetons)

  Atom         1           2           3           4           5           6           7           8           9          10
 IAtWgt=          12          12          12          12          12          12           1           1           1           1
 AtmWgt=  12.0000000  12.0000000  12.0000000  12.0000000  12.0000000  12.0000000   1.0078250   1.0078250   1.0078250   1.0078250
 NucSpn=           0           0           0           0           0           0           1           1           1           1
 AtZEff=  -0.0000000  -0.0000000  -0.0000000  -0.0000000  -0.0000000  -0.0000000  -0.0000000  -0.0000000  -0.0000000  -0.0000000
 NQMom=    0.0000000   0.0000000   0.0000000   0.0000000   0.0000000   0.0000000   0.0000000   0.0000000   0.0000000   0.0000000
 NMagM=    0.0000000   0.0000000   0.0000000   0.0000000   0.0000000   0.0000000   2.7928460   2.7928460   2.7928460   2.7928460
 AtZNuc=   6.0000000   6.0000000   6.0000000   6.0000000   6.0000000   6.0000000   1.0000000   1.0000000   1.0000000   1.0000000

  Atom        11          12          13          14          15          16          17          18          19          20
 IAtWgt=           1          14          16          16          12          12          12          12          12          12
 AtmWgt=   1.0078250  14.0030740  15.9949146  15.9949146  12.0000000  12.0000000  12.0000000  12.0000000  12.0000000  12.0000000
 NucSpn=           1           2           0           0           0           0           0           0           0           0
 AtZEff=  -0.0000000  -0.0000000  -0.0000000  -0.0000000  -0.0000000  -0.0000000  -0.0000000  -0.0000000  -0.0000000  -0.0000000
 NQMom=    0.0000000   2.0440000   0.0000000   0.0000000   0.0000000   0.0000000   0.0000000   0.0000000   0.0000000   0.0000000
 NMagM=    2.7928460   0.4037610   0.0000000   0.0000000   0.0000000   0.0000000   0.0000000   0.0000000   0.0000000   0.0000000
 AtZNuc=   1.0000000   7.0000000   8.0000000   8.0000000   6.0000000   6.0000000   6.0000000   6.0000000   6.0000000   6.0000000

  Atom        21          22          23          24          25          26          27          28
 IAtWgt=           1           1           1           1           1          14          16          16
 AtmWgt=   1.0078250   1.0078250   1.0078250   1.0078250   1.0078250  14.0030740  15.9949146  15.9949146
 NucSpn=           1           1           1           1           1           2           0           0
 AtZEff=  -0.0000000  -0.0000000  -0.0000000  -0.0000000  -0.0000000  -0.0000000  -0.0000000  -0.0000000
 NQMom=    0.0000000   0.0000000   0.0000000   0.0000000   0.0000000   2.0440000   0.0000000   0.0000000
 NMagM=    2.7928460   2.7928460   2.7928460   2.7928460   2.7928460   0.4037610   0.0000000   0.0000000
 AtZNuc=   1.0000000   1.0000000   1.0000000   1.0000000   1.0000000   7.0000000   8.0000000   8.0000000
 Leave Link  101 at Thu May  6 08:15:50 2021, MaxMem=   524288000 cpu:               0.4 elap:               0.2
 (Enter /opt/gaussian/g16_legacy/l202.exe)
                          Input orientation:                          
 ---------------------------------------------------------------------
 Center     Atomic      Atomic             Coordinates (Angstroms)
 Number     Number       Type             X           Y           Z
 ---------------------------------------------------------------------
      1          6           0        1.914143    0.000000    0.000000
      2          6           0        1.214143    1.211000    0.000000
      3          6           0       -0.183857    1.223000    0.000000
      4          6           0       -0.852857    0.000000    0.000000
      5          6           0       -0.183857   -1.223000    0.000000
      6          6           0        1.214143   -1.211000    0.000000
      7          1           0        3.000143    0.000000    0.000000
      8          1           0        1.755143    2.153000    0.000000
      9          1           0       -0.750857    2.146000    0.000000
     10          1           0       -0.750857   -2.146000    0.000000
     11          1           0        1.755143   -2.153000    0.000000
     12          7           0       -2.332857    0.000000    0.000000
     13          8           0       -2.898857   -1.091000    0.000000
     14          8           0       -2.898857    1.091000    0.000000
     15          6           0        6.254957   -2.395492   -4.247403
     16          6           0        5.579491   -2.040132   -3.075231
     17          6           0        4.470571   -1.190190   -3.124661
     18          6           0        4.062490   -0.711856   -4.368830
     19          6           0        4.714589   -1.047654   -5.554282
     20          6           0        5.821115   -1.898994   -5.481012
     21          1           0        7.115463   -3.056290   -4.199745
     22          1           0        5.914184   -2.424208   -2.115798
     23          1           0        3.929221   -0.898974   -2.232724
     24          1           0        4.357400   -0.648865   -6.495983
     25          1           0        6.343759   -2.173283   -6.392963
     26          7           0        2.889793    0.188680   -4.433778
     27          8           0        2.550156    0.596650   -5.542310
     28          8           0        2.332475    0.469498   -3.374922
 ---------------------------------------------------------------------
                    Distance matrix (angstroms):
                    1          2          3          4          5
     1  C    0.000000
     2  C    1.398757   0.000000
     3  C    2.428443   1.398052   0.000000
     4  C    2.767000   2.395623   1.394019   0.000000
     5  C    2.428443   2.806913   2.446000   1.394019   0.000000
     6  C    1.398757   2.422000   2.806913   2.395623   1.398052
     7  H    1.086000   2.157850   3.410804   3.853000   3.410804
     8  H    2.158863   1.086299   2.150493   3.381874   3.893212
     9  H    3.421628   2.176109   1.083244   2.148423   3.416380
    10  H    3.421628   3.889817   3.416380   2.148423   1.083244
    11  H    2.158863   3.407224   3.893212   3.381874   2.150493
    12  N    4.247000   3.748030   2.472636   1.480000   2.472636
    13  O    4.935104   4.713382   3.567327   2.318706   2.718207
    14  O    4.935104   4.114750   2.718207   2.318706   3.567327
    15  C    6.528513   7.513789   8.520108   8.619735   7.802147
    16  C    5.201342   6.251653   7.302141   7.415813   6.583383
    17  C    4.208965   5.112098   6.103335   6.286409   5.606093
    18  C    4.920245   5.558519   6.392324   6.614684   6.113870
    19  C    6.307941   6.942960   7.746011   7.933731   7.407805
    20  C    6.993719   7.806263   8.709077   8.842487   8.158318
    21  H    7.350680   8.406735   9.446177   9.511724   8.618520
    22  H    5.133587   6.307275   7.413827   7.493079   6.565486
    23  H    3.139068   4.099841   5.138603   5.353642   4.691211
    24  H    6.970533   7.452312   8.143997   8.352580   7.946725
    25  H    8.075558   8.867712   9.747537   9.868354   9.186010
    26  N    4.543774   4.848848   5.493226   5.805292   5.576608
    27  O    5.610499   5.734070   6.211630   6.530979   6.442294
    28  O    3.433006   3.631885   4.276656   4.664426   4.537243
                    6          7          8          9         10
     6  C    0.000000
     7  H    2.157850   0.000000
     8  H    3.407224   2.487053   0.000000
     9  H    3.889817   4.321495   2.506010   0.000000
    10  H    2.176109   4.321495   4.976087   4.292000   0.000000
    11  H    1.086299   2.487053   4.306000   4.976087   2.506010
    12  N    3.748030   5.333000   4.620298   2.666091   2.666091
    13  O    4.114750   5.999040   5.673028   3.884852   2.393100
    14  O    4.713382   5.999040   4.773632   2.393100   3.884852
    15  C    6.697258   5.862817   7.679683   9.367337   8.196591
    16  C    5.403774   4.502468   6.454846   8.188654   7.038577
    17  C    4.513121   3.652700   5.321088   6.939523   6.159577
    18  C    5.239170   4.552142   5.711211   7.100868   6.656707
    19  C    6.567332   5.906518   7.060634   8.421435   7.869404
    20  C    7.192984   6.450237   7.936767   9.465426   8.561152
    21  H    7.474525   6.626811   8.573657  10.323791   8.963564
    22  H    5.295173   4.341085   6.536441   8.353812   6.998341
    23  H    3.529032   2.579999   4.361905   6.013323   5.333222
    24  H    7.238360   6.667906   7.537903   8.723724   8.398422
    25  H    8.252813   7.534780   8.980095  10.481401   9.550094
    26  N    4.942195   4.439163   4.980399   6.061668   6.193824
    27  O    5.980780   5.592466   5.811323   6.634333   7.009709
    28  O    3.932536   3.472219   3.815441   4.869055   5.266675
                   11         12         13         14         15
    11  H    0.000000
    12  N    4.620298   0.000000
    13  O    4.773632   1.229080   0.000000
    14  O    5.673028   1.229080   2.182000   0.000000
    15  C    6.192541   9.875696  10.175188  10.676534   0.000000
    16  C    4.908709   8.730661   9.068643   9.546906   1.398757
    17  C    4.250183   7.580679   8.005112   8.323209   2.428443
    18  C    5.146593   7.777781   8.227441   8.414114   2.767000
    19  C    6.389848   9.034053   9.424250   9.663770   2.428443
    20  C    6.829212  10.006744  10.331131  10.724713   1.398757
    21  H    6.869266  10.781907  11.035707  11.624305   1.086000
    22  H    4.674161   8.852518   9.160990   9.721264   2.158863
    23  H    3.359204   6.708713   7.186416   7.454375   3.421629
    24  H    7.157650   9.347639   9.749182   9.893341   3.421628
    25  H    7.869294  10.994399  11.290140  11.702627   2.158863
    26  N    5.140942   6.853471   7.403002   7.347179   4.247000
    27  O    6.237774   7.410601   7.953434   7.788024   4.935104
    28  O    4.312877   5.777184   6.418106   6.256452   4.935104
                   16         17         18         19         20
    16  C    0.000000
    17  C    1.398052   0.000000
    18  C    2.395623   1.394019   0.000000
    19  C    2.806913   2.446001   1.394019   0.000000
    20  C    2.422000   2.806913   2.395623   1.398052   0.000000
    21  H    2.157851   3.410805   3.852999   3.410804   2.157850
    22  H    1.086299   2.150494   3.381874   3.893212   3.407224
    23  H    2.176109   1.083244   2.148423   3.416381   3.889817
    24  H    3.889817   3.416380   2.148423   1.083244   2.176109
    25  H    3.407225   3.893212   3.381874   2.150493   1.086299
    26  N    3.748030   2.472636   1.480001   2.472637   3.748030
    27  O    4.713382   3.567326   2.318706   2.718207   4.114750
    28  O    4.114750   2.718207   2.318707   3.567328   4.713383
                   21         22         23         24         25
    21  H    0.000000
    22  H    2.487053   0.000000
    23  H    4.321495   2.506010   0.000000
    24  H    4.321495   4.976087   4.292001   0.000000
    25  H    2.487053   4.306000   4.976087   2.506010   0.000000
    26  N    5.333000   4.620298   2.666091   2.666091   4.620298
    27  O    5.999040   5.673028   3.884851   2.393101   4.773632
    28  O    5.999041   4.773632   2.393100   3.884852   5.673029
                   26         27         28
    26  N    0.000000
    27  O    1.229079   0.000000
    28  O    1.229080   2.182000   0.000000
 Stoichiometry    C12H10N2O4
 Framework group  C1[X(C12H10N2O4)]
 Deg. of freedom    78
 Full point group                 C1      NOp   1
 Largest Abelian subgroup         C1      NOp   1
 Largest concise Abelian subgroup C1      NOp   1
                         Standard orientation:                         
 ---------------------------------------------------------------------
 Center     Atomic      Atomic             Coordinates (Angstroms)
 Number     Number       Type             X           Y           Z
 ---------------------------------------------------------------------
      1          6           0       -1.265576   -1.426685    1.142126
      2          6           0       -2.029661   -0.497824    1.856207
      3          6           0       -3.145010    0.106025    1.268064
      4          6           0       -3.469084   -0.243862   -0.041839
      5          6           0       -2.727638   -1.165710   -0.779228
      6          6           0       -1.616384   -1.757081   -0.170998
      7          1           0       -0.400737   -1.890923    1.606811
      8          1           0       -1.759573   -0.239319    2.876144
      9          1           0       -3.754038    0.828294    1.797999
     10          1           0       -3.021674   -1.403222   -1.794388
     11          1           0       -1.024820   -2.478114   -0.727961
     12          7           0       -4.647686    0.388801   -0.675112
     13          8           0       -4.912259    0.063515   -1.830459
     14          8           0       -5.284584    1.197990   -0.004133
     15          6           0        5.064611   -1.386555   -0.454306
     16          6           0        3.785896   -1.779937   -0.046066
     17          6           0        2.786458   -0.827440    0.173979
     18          6           0        3.101808    0.515835   -0.024657
     19          6           0        4.366282    0.939198   -0.431053
     20          6           0        5.350219   -0.030634   -0.645160
     21          1           0        5.834979   -2.133211   -0.622936
     22          1           0        3.561242   -2.832256    0.102939
     23          1           0        1.788102   -1.104254    0.490330
     24          1           0        4.560222    1.995669   -0.571320
     25          1           0        6.342404    0.277779   -0.962174
     26          7           0        2.051952    1.533377    0.205152
     27          8           0        2.355108    2.710499    0.023173
     28          8           0        0.945797    1.134537    0.562903
 ---------------------------------------------------------------------
 Rotational constants (GHZ):           0.8858848           0.1518219           0.1427487
 Leave Link  202 at Thu May  6 08:15:51 2021, MaxMem=   524288000 cpu:               0.3 elap:               0.3
 (Enter /opt/gaussian/g16_legacy/l301.exe)
 Standard basis: 6-31G(d) (6D, 7F)
 Ernie: Thresh=  0.10000D-02 Tol=  0.10000D-05 Strict=F.
 There are   290 symmetry adapted cartesian basis functions of A   symmetry.
 There are   290 symmetry adapted basis functions of A   symmetry.
   290 basis functions,   544 primitive gaussians,   290 cartesian basis functions
    64 alpha electrons       64 beta electrons
       nuclear repulsion energy      1156.0702397678 Hartrees.
 IExCor=    0 DFT=F Ex=HF Corr=None ExCW=0 ScaHFX=  1.000000
 ScaDFX=  1.000000  1.000000  1.000000  1.000000 ScalE2=  1.000000  1.000000
 IRadAn=      5 IRanWt=     -1 IRanGd=            0 ICorTp=0 IEmpDi=  4
 NAtoms=   28 NActive=   28 NUniq=   28 SFac= 1.00D+00 NAtFMM=   60 NAOKFM=F Big=F
 Integral buffers will be    131072 words long.
 Raffenetti 1 integral format.
 Two-electron integral symmetry is turned on.
 Leave Link  301 at Thu May  6 08:15:51 2021, MaxMem=   524288000 cpu:               0.3 elap:               0.2
 (Enter /opt/gaussian/g16_legacy/l302.exe)
 NPDir=0 NMtPBC=     1 NCelOv=     1 NCel=       1 NClECP=     1 NCelD=      1
         NCelK=      1 NCelE2=     1 NClLst=     1 CellRange=     0.0.
 One-electron integrals computed using PRISM.
 One-electron integral symmetry used in STVInt
 NBasis=   290 RedAO= T EigKep=  4.64D-04  NBF=   290
 NBsUse=   290 1.00D-06 EigRej= -1.00D+00 NBFU=   290
 Leave Link  302 at Thu May  6 08:15:52 2021, MaxMem=   524288000 cpu:               0.8 elap:               0.7
 (Enter /opt/gaussian/g16_legacy/l303.exe)
 DipDrv:  MaxL=1.
 Leave Link  303 at Thu May  6 08:15:52 2021, MaxMem=   524288000 cpu:               0.1 elap:               0.1
 (Enter /opt/gaussian/g16_legacy/l401.exe)
 ExpMin= 1.61D-01 ExpMax= 5.48D+03 ExpMxC= 8.25D+02 IAcc=3 IRadAn=         5 AccDes= 0.00D+00
 Harris functional with IExCor=  205 and IRadAn=       5 diagonalized for initial guess.
 HarFok:  IExCor=  205 AccDes= 0.00D+00 IRadAn=         5 IDoV= 1 UseB2=F ITyADJ=14
 ICtDFT=  3500011 ScaDFX=  1.000000  1.000000  1.000000  1.000000
 FoFCou: FMM=F IPFlag=           0 FMFlag=      100000 FMFlg1=           0
         NFxFlg=           0 DoJE=T BraDBF=F KetDBF=T FulRan=T
         wScrn=  0.000000 ICntrl=       500 IOpCl=  0 I1Cent=   200000004 NGrid=           0
         NMat0=    1 NMatS0=      1 NMatT0=    0 NMatD0=    1 NMtDS0=    0 NMtDT0=    0
 Petite list used in FoFCou.
 Harris En= -869.213476220627    
 JPrj=0 DoOrth=F DoCkMO=F.
 Leave Link  401 at Thu May  6 08:15:59 2021, MaxMem=   524288000 cpu:              12.0 elap:               6.2
 (Enter /opt/gaussian/g16_legacy/l502.exe)
 Integral symmetry usage will be decided dynamically.
 Closed shell SCF:
 Using DIIS extrapolation, IDIIS=  1040.
 NGot=   524288000 LenX=   524114954 LenY=   524030413
 Requested convergence on RMS density matrix=1.00D-08 within 128 cycles.
 Requested convergence on MAX density matrix=1.00D-06.
 Requested convergence on             energy=1.00D-06.
 No special actions if energy rises.
 Fock matrices will be formed incrementally for  20 cycles.
 Integral accuracy reduced to 1.0D-05 until final iterations.

 Cycle   1  Pass 0  IDiag  1:
 FoFJK:  IHMeth= 1 ICntrl=       0 DoSepK=F KAlg= 0 I1Cent=           0 FoldK=F
 IRaf= 720000000 NMat=       1 IRICut=       1 DoRegI=T DoRafI=F ISym2E= 0 IDoP0=0 IntGTp=1.
 FoFCou: FMM=F IPFlag=           0 FMFlag=      100000 FMFlg1=           0
         NFxFlg=           0 DoJE=F BraDBF=F KetDBF=F FulRan=T
         wScrn=  0.000000 ICntrl=         0 IOpCl=  0 I1Cent=           0 NGrid=           0
         NMat0=    1 NMatS0=      1 NMatT0=    0 NMatD0=    1 NMtDS0=    0 NMtDT0=    0
 Symmetry not used in FoFCou.
 E= -867.606905839050    
 DIIS: error= 6.19D-02 at cycle   1 NSaved=   1.
 NSaved= 1 IEnMin= 1 EnMin= -867.606905839050     IErMin= 1 ErrMin= 6.19D-02
 ErrMax= 6.19D-02  0.00D+00 EMaxC= 1.00D-01 BMatC= 1.28D+00 BMatP= 1.28D+00
 IDIUse=3 WtCom= 3.81D-01 WtEn= 6.19D-01
 Coeff-Com:  0.100D+01
 Coeff-En:   0.100D+01
 Coeff:      0.100D+01
 Gap=     0.556 Goal=   None    Shift=    0.000
 GapD=    0.556 DampG=2.000 DampE=0.500 DampFc=1.0000 IDamp=-1.
 RMSDP=4.47D-03 MaxDP=8.79D-02              OVMax= 1.51D-01

 Cycle   2  Pass 0  IDiag  1:
 RMSU=  4.37D-03    CP:  9.52D-01
 E= -868.117773268435     Delta-E=       -0.510867429385 Rises=F Damp=F
 DIIS: error= 3.27D-02 at cycle   2 NSaved=   2.
 NSaved= 2 IEnMin= 2 EnMin= -868.117773268435     IErMin= 2 ErrMin= 3.27D-02
 ErrMax= 3.27D-02  0.00D+00 EMaxC= 1.00D-01 BMatC= 2.91D-01 BMatP= 1.28D+00
 IDIUse=3 WtCom= 6.73D-01 WtEn= 3.27D-01
 Coeff-Com:  0.268D+00 0.732D+00
 Coeff-En:   0.000D+00 0.100D+01
 Coeff:      0.181D+00 0.819D+00
 Gap=     0.459 Goal=   None    Shift=    0.000
 RMSDP=1.87D-03 MaxDP=8.61D-02 DE=-5.11D-01 OVMax= 1.23D-01

 Cycle   3  Pass 0  IDiag  1:
 RMSU=  1.65D-03    CP:  9.54D-01  7.98D-01
 E= -868.286614046280     Delta-E=       -0.168840777845 Rises=F Damp=F
 DIIS: error= 1.70D-02 at cycle   3 NSaved=   3.
 NSaved= 3 IEnMin= 3 EnMin= -868.286614046280     IErMin= 3 ErrMin= 1.70D-02
 ErrMax= 1.70D-02  0.00D+00 EMaxC= 1.00D-01 BMatC= 6.68D-02 BMatP= 2.91D-01
 IDIUse=3 WtCom= 8.30D-01 WtEn= 1.70D-01
 Coeff-Com: -0.224D-01 0.307D+00 0.716D+00
 Coeff-En:   0.000D+00 0.703D-01 0.930D+00
 Coeff:     -0.186D-01 0.267D+00 0.752D+00
 Gap=     0.413 Goal=   None    Shift=    0.000
 RMSDP=6.86D-04 MaxDP=2.91D-02 DE=-1.69D-01 OVMax= 4.60D-02

 Cycle   4  Pass 0  IDiag  1:
 RMSU=  3.84D-04    CP:  9.53D-01  8.95D-01  7.70D-01
 E= -868.333931976855     Delta-E=       -0.047317930575 Rises=F Damp=F
 DIIS: error= 3.28D-03 at cycle   4 NSaved=   4.
 NSaved= 4 IEnMin= 4 EnMin= -868.333931976855     IErMin= 4 ErrMin= 3.28D-03
 ErrMax= 3.28D-03  0.00D+00 EMaxC= 1.00D-01 BMatC= 2.59D-03 BMatP= 6.68D-02
 IDIUse=3 WtCom= 9.67D-01 WtEn= 3.28D-02
 Coeff-Com: -0.124D-01 0.472D-01 0.241D+00 0.725D+00
 Coeff-En:   0.000D+00 0.000D+00 0.000D+00 0.100D+01
 Coeff:     -0.120D-01 0.457D-01 0.233D+00 0.734D+00
 Gap=     0.399 Goal=   None    Shift=    0.000
 RMSDP=1.69D-04 MaxDP=6.35D-03 DE=-4.73D-02 OVMax= 9.91D-03

 Cycle   5  Pass 0  IDiag  1:
 RMSU=  1.13D-04    CP:  9.52D-01  8.97D-01  8.34D-01  8.28D-01
 E= -868.336171352614     Delta-E=       -0.002239375759 Rises=F Damp=F
 DIIS: error= 5.31D-04 at cycle   5 NSaved=   5.
 NSaved= 5 IEnMin= 5 EnMin= -868.336171352614     IErMin= 5 ErrMin= 5.31D-04
 ErrMax= 5.31D-04  0.00D+00 EMaxC= 1.00D-01 BMatC= 8.40D-05 BMatP= 2.59D-03
 IDIUse=3 WtCom= 9.95D-01 WtEn= 5.31D-03
 Coeff-Com:  0.190D-02-0.236D-01-0.627D-01 0.153D-01 0.107D+01
 Coeff-En:   0.000D+00 0.000D+00 0.000D+00 0.000D+00 0.100D+01
 Coeff:      0.189D-02-0.235D-01-0.624D-01 0.153D-01 0.107D+01
 Gap=     0.401 Goal=   None    Shift=    0.000
 RMSDP=5.85D-05 MaxDP=1.73D-03 DE=-2.24D-03 OVMax= 4.52D-03

 Cycle   6  Pass 0  IDiag  1:
 RMSU=  2.90D-05    CP:  9.52D-01  9.00D-01  8.45D-01  9.25D-01  1.21D+00
 E= -868.336340464974     Delta-E=       -0.000169112359 Rises=F Damp=F
 DIIS: error= 2.35D-04 at cycle   6 NSaved=   6.
 NSaved= 6 IEnMin= 6 EnMin= -868.336340464974     IErMin= 6 ErrMin= 2.35D-04
 ErrMax= 2.35D-04  0.00D+00 EMaxC= 1.00D-01 BMatC= 1.13D-05 BMatP= 8.40D-05
 IDIUse=3 WtCom= 9.98D-01 WtEn= 2.35D-03
 Coeff-Com:  0.136D-02-0.842D-02-0.330D-01-0.613D-01 0.127D+00 0.974D+00
 Coeff-En:   0.000D+00 0.000D+00 0.000D+00 0.000D+00 0.000D+00 0.100D+01
 Coeff:      0.136D-02-0.840D-02-0.329D-01-0.612D-01 0.127D+00 0.974D+00
 Gap=     0.401 Goal=   None    Shift=    0.000
 RMSDP=2.26D-05 MaxDP=5.82D-04 DE=-1.69D-04 OVMax= 1.79D-03

 Cycle   7  Pass 0  IDiag  1:
 RMSU=  1.17D-05    CP:  9.52D-01  9.01D-01  8.48D-01  9.45D-01  1.35D+00
                    CP:  1.22D+00
 E= -868.336370376542     Delta-E=       -0.000029911568 Rises=F Damp=F
 DIIS: error= 1.51D-04 at cycle   7 NSaved=   7.
 NSaved= 7 IEnMin= 7 EnMin= -868.336370376542     IErMin= 7 ErrMin= 1.51D-04
 ErrMax= 1.51D-04  0.00D+00 EMaxC= 1.00D-01 BMatC= 2.66D-06 BMatP= 1.13D-05
 IDIUse=3 WtCom= 9.98D-01 WtEn= 1.51D-03
 Coeff-Com:  0.145D-05 0.165D-02 0.244D-02-0.112D-01-0.136D+00 0.174D+00
 Coeff-Com:  0.969D+00
 Coeff-En:   0.000D+00 0.000D+00 0.000D+00 0.000D+00 0.000D+00 0.000D+00
 Coeff-En:   0.100D+01
 Coeff:      0.145D-05 0.165D-02 0.244D-02-0.111D-01-0.136D+00 0.174D+00
 Coeff:      0.969D+00
 Gap=     0.401 Goal=   None    Shift=    0.000
 RMSDP=1.08D-05 MaxDP=4.07D-04 DE=-2.99D-05 OVMax= 1.21D-03

 Cycle   8  Pass 0  IDiag  1:
 RMSU=  5.95D-06    CP:  9.52D-01  9.01D-01  8.48D-01  9.52D-01  1.39D+00
                    CP:  1.45D+00  1.20D+00
 E= -868.336378754817     Delta-E=       -0.000008378276 Rises=F Damp=F
 DIIS: error= 6.90D-05 at cycle   8 NSaved=   8.
 NSaved= 8 IEnMin= 8 EnMin= -868.336378754817     IErMin= 8 ErrMin= 6.90D-05
 ErrMax= 6.90D-05  0.00D+00 EMaxC= 1.00D-01 BMatC= 7.48D-07 BMatP= 2.66D-06
 IDIUse=1 WtCom= 1.00D+00 WtEn= 0.00D+00
 Coeff-Com: -0.353D-03 0.266D-02 0.947D-02 0.151D-01-0.644D-01-0.220D+00
 Coeff-Com:  0.199D+00 0.106D+01
 Coeff:     -0.353D-03 0.266D-02 0.947D-02 0.151D-01-0.644D-01-0.220D+00
 Coeff:      0.199D+00 0.106D+01
 Gap=     0.401 Goal=   None    Shift=    0.000
 RMSDP=7.07D-06 MaxDP=2.44D-04 DE=-8.38D-06 OVMax= 7.60D-04

 Initial convergence to 1.0D-05 achieved.  Increase integral accuracy.
 Cycle   9  Pass 1  IDiag  1:
 E= -868.336376612561     Delta-E=        0.000002142256 Rises=F Damp=F
 DIIS: error= 3.66D-05 at cycle   1 NSaved=   1.
 NSaved= 1 IEnMin= 1 EnMin= -868.336376612561     IErMin= 1 ErrMin= 3.66D-05
 ErrMax= 3.66D-05  0.00D+00 EMaxC= 1.00D-01 BMatC= 3.00D-07 BMatP= 3.00D-07
 IDIUse=1 WtCom= 1.00D+00 WtEn= 0.00D+00
 Coeff-Com:  0.100D+01
 Coeff:      0.100D+01
 Gap=     0.401 Goal=   None    Shift=    0.000
 RMSDP=7.07D-06 MaxDP=2.44D-04 DE= 2.14D-06 OVMax= 2.33D-04

 Cycle  10  Pass 1  IDiag  1:
 RMSU=  1.35D-05    CP:  1.00D+00
 E= -868.336377150493     Delta-E=       -0.000000537932 Rises=F Damp=F
 DIIS: error= 2.54D-05 at cycle   2 NSaved=   2.
 NSaved= 2 IEnMin= 2 EnMin= -868.336377150493     IErMin= 2 ErrMin= 2.54D-05
 ErrMax= 2.54D-05  0.00D+00 EMaxC= 1.00D-01 BMatC= 7.59D-08 BMatP= 3.00D-07
 IDIUse=1 WtCom= 1.00D+00 WtEn= 0.00D+00
 Coeff-Com:  0.145D+00 0.855D+00
 Coeff:      0.145D+00 0.855D+00
 Gap=     0.401 Goal=   None    Shift=    0.000
 RMSDP=1.49D-06 MaxDP=6.14D-05 DE=-5.38D-07 OVMax= 1.48D-04

 Cycle  11  Pass 1  IDiag  1:
 RMSU=  1.36D-06    CP:  1.00D+00  1.05D+00
 E= -868.336377326348     Delta-E=       -0.000000175854 Rises=F Damp=F
 DIIS: error= 1.60D-05 at cycle   3 NSaved=   3.
 NSaved= 3 IEnMin= 3 EnMin= -868.336377326348     IErMin= 3 ErrMin= 1.60D-05
 ErrMax= 1.60D-05  0.00D+00 EMaxC= 1.00D-01 BMatC= 3.66D-08 BMatP= 7.59D-08
 IDIUse=1 WtCom= 1.00D+00 WtEn= 0.00D+00
 Coeff-Com: -0.164D+00 0.282D+00 0.882D+00
 Coeff:     -0.164D+00 0.282D+00 0.882D+00
 Gap=     0.401 Goal=   None    Shift=    0.000
 RMSDP=1.14D-06 MaxDP=3.13D-05 DE=-1.76D-07 OVMax= 1.24D-04

 Cycle  12  Pass 1  IDiag  1:
 RMSU=  9.14D-07    CP:  1.00D+00  1.07D+00  1.41D+00
 E= -868.336377438274     Delta-E=       -0.000000111927 Rises=F Damp=F
 DIIS: error= 9.30D-06 at cycle   4 NSaved=   4.
 NSaved= 4 IEnMin= 4 EnMin= -868.336377438274     IErMin= 4 ErrMin= 9.30D-06
 ErrMax= 9.30D-06  0.00D+00 EMaxC= 1.00D-01 BMatC= 8.69D-09 BMatP= 3.66D-08
 IDIUse=1 WtCom= 1.00D+00 WtEn= 0.00D+00
 Coeff-Com: -0.399D-02-0.461D+00-0.349D+00 0.181D+01
 Coeff:     -0.399D-02-0.461D+00-0.349D+00 0.181D+01
 Gap=     0.401 Goal=   None    Shift=    0.000
 RMSDP=1.46D-06 MaxDP=3.94D-05 DE=-1.12D-07 OVMax= 1.68D-04

 Cycle  13  Pass 1  IDiag  1:
 RMSU=  2.67D-07    CP:  1.00D+00  1.09D+00  2.25D+00  1.93D+00
 E= -868.336377499363     Delta-E=       -0.000000061088 Rises=F Damp=F
 DIIS: error= 2.23D-06 at cycle   5 NSaved=   5.
 NSaved= 5 IEnMin= 5 EnMin= -868.336377499363     IErMin= 5 ErrMin= 2.23D-06
 ErrMax= 2.23D-06  0.00D+00 EMaxC= 1.00D-01 BMatC= 7.27D-10 BMatP= 8.69D-09
 IDIUse=1 WtCom= 1.00D+00 WtEn= 0.00D+00
 Coeff-Com:  0.138D-01-0.185D+00-0.204D+00 0.638D+00 0.738D+00
 Coeff:      0.138D-01-0.185D+00-0.204D+00 0.638D+00 0.738D+00
 Gap=     0.401 Goal=   None    Shift=    0.000
 RMSDP=1.95D-07 MaxDP=7.43D-06 DE=-6.11D-08 OVMax= 2.66D-05

 Cycle  14  Pass 1  IDiag  1:
 RMSU=  8.89D-08    CP:  1.00D+00  1.09D+00  2.34D+00  2.06D+00  9.93D-01
 E= -868.336377500933     Delta-E=       -0.000000001570 Rises=F Damp=F
 DIIS: error= 4.82D-07 at cycle   6 NSaved=   6.
 NSaved= 6 IEnMin= 6 EnMin= -868.336377500933     IErMin= 6 ErrMin= 4.82D-07
 ErrMax= 4.82D-07  0.00D+00 EMaxC= 1.00D-01 BMatC= 3.96D-11 BMatP= 7.27D-10
 IDIUse=1 WtCom= 1.00D+00 WtEn= 0.00D+00
 Coeff-Com: -0.142D-02 0.645D-01 0.560D-01-0.239D+00-0.864D-01 0.121D+01
 Coeff:     -0.142D-02 0.645D-01 0.560D-01-0.239D+00-0.864D-01 0.121D+01
 Gap=     0.401 Goal=   None    Shift=    0.000
 RMSDP=5.68D-08 MaxDP=1.33D-06 DE=-1.57D-09 OVMax= 4.18D-06

 Cycle  15  Pass 1  IDiag  1:
 RMSU=  3.08D-08    CP:  1.00D+00  1.09D+00  2.35D+00  2.07D+00  1.14D+00
                    CP:  1.28D+00
 E= -868.336377501051     Delta-E=       -0.000000000119 Rises=F Damp=F
 DIIS: error= 1.44D-07 at cycle   7 NSaved=   7.
 NSaved= 7 IEnMin= 7 EnMin= -868.336377501051     IErMin= 7 ErrMin= 1.44D-07
 ErrMax= 1.44D-07  0.00D+00 EMaxC= 1.00D-01 BMatC= 4.86D-12 BMatP= 3.96D-11
 IDIUse=1 WtCom= 1.00D+00 WtEn= 0.00D+00
 Coeff-Com: -0.220D-02 0.385D-01 0.388D-01-0.137D+00-0.119D+00 0.246D+00
 Coeff-Com:  0.934D+00
 Coeff:     -0.220D-02 0.385D-01 0.388D-01-0.137D+00-0.119D+00 0.246D+00
 Coeff:      0.934D+00
 Gap=     0.401 Goal=   None    Shift=    0.000
 RMSDP=1.83D-08 MaxDP=6.01D-07 DE=-1.19D-10 OVMax= 1.67D-06

 Cycle  16  Pass 1  IDiag  1:
 RMSU=  8.23D-09    CP:  1.00D+00  1.09D+00  2.35D+00  2.07D+00  1.16D+00
                    CP:  1.42D+00  1.20D+00
 E= -868.336377501025     Delta-E=        0.000000000026 Rises=F Damp=F
 DIIS: error= 4.08D-08 at cycle   8 NSaved=   8.
 NSaved= 8 IEnMin= 7 EnMin= -868.336377501051     IErMin= 8 ErrMin= 4.08D-08
 ErrMax= 4.08D-08  0.00D+00 EMaxC= 1.00D-01 BMatC= 3.40D-13 BMatP= 4.86D-12
 IDIUse=1 WtCom= 1.00D+00 WtEn= 0.00D+00
 Coeff-Com: -0.528D-03 0.753D-02 0.797D-02-0.258D-01-0.284D-01 0.138D-01
 Coeff-Com:  0.236D+00 0.790D+00
 Coeff:     -0.528D-03 0.753D-02 0.797D-02-0.258D-01-0.284D-01 0.138D-01
 Coeff:      0.236D+00 0.790D+00
 Gap=     0.401 Goal=   None    Shift=    0.000
 RMSDP=2.98D-09 MaxDP=7.32D-08 DE= 2.61D-11 OVMax= 2.32D-07

 SCF Done:  E(RHF) =  -868.336377501     A.U. after   16 cycles
            NFock= 16  Conv=0.30D-08     -V/T= 2.0031
 KE= 8.656923184257D+02 PE=-4.345241613810D+03 EE= 1.455142678116D+03
 Leave Link  502 at Thu May  6 08:17:05 2021, MaxMem=   524288000 cpu:             130.1 elap:              66.5
 (Enter /opt/gaussian/g16_legacy/l801.exe)
 ExpMin= 1.61D-01 ExpMax= 5.48D+03 ExpMxC= 8.25D+02 IAcc=3 IRadAn=         5 AccDes= 0.00D+00
 HarFok:  IExCor=  205 AccDes= 0.00D+00 IRadAn=         5 IDoV=-2 UseB2=F ITyADJ=14
 ICtDFT= 12500011 ScaDFX=  1.000000  1.000000  1.000000  1.000000
 Largest valence mixing into a core orbital is  1.94D-04
 Largest core mixing into a valence orbital is  4.00D-05
 Range of M.O.s used for correlation:    19   290
 NBasis=   290 NAE=    64 NBE=    64 NFC=    18 NFV=     0
 NROrb=    272 NOA=    46 NOB=    46 NVA=   226 NVB=   226
 Leave Link  801 at Thu May  6 08:17:06 2021, MaxMem=   524288000 cpu:               1.6 elap:               0.9
 (Enter /opt/gaussian/g16_legacy/l906.exe)
 FulOut=F Deriv=F AODrv=F NAtomX=    28
   MMem=          85  MDisk=          46 MDiskD=          46
  W3Min=     3014840 MinDsk=     3114491 NBas6D=         290
 NBas2D=       42681    NTT=       42195    LW2=     2000000
    MDV=   523932234 MDiskM=       24996 NBas2p=       29071
 Fully direct method using O(OVN) memory.
 IMap=   1   2   3   4   5   6   7   8   9  10  11  12  13  14  15  16  17  18  19  20
 IMap=  21  22  23  24  25  26  27  28  29  30  31  32  33  34  35  36  37  38  39  40
 IMap=  41  42  43  44  45  46
 JobTyp=1 Pass  1:  I=   1 to  46 NPSUse=  2 ParTrn=T ParDer=T DoDerP=F.
 Spin components of T(2) and E(2):
     alpha-alpha T2 =       0.1272157261D+00 E2=     -0.3598921310D+00
     alpha-beta  T2 =       0.6483236757D+00 E2=     -0.1881772760D+01
     beta-beta   T2 =       0.1272157261D+00 E2=     -0.3598921310D+00
 The integrals were generated   1 times.
 ANorm=    0.1379403903D+01
 E2 =    -0.2601557022D+01 EUMP2 =    -0.87093793452269D+03
 Leave Link  906 at Thu May  6 08:18:52 2021, MaxMem=   524288000 cpu:             210.7 elap:             106.3
 (Enter /opt/gaussian/g16_legacy/l601.exe)
 Copying SCF densities to generalized density rwf, IOpCl= 0 IROHF=0.

 **********************************************************************

            Population analysis using the SCF density.

 **********************************************************************

 Orbital symmetries:
       Occupied  (A) (A) (A) (A) (A) (A) (A) (A) (A) (A) (A) (A)
                 (A) (A) (A) (A) (A) (A) (A) (A) (A) (A) (A) (A)
                 (A) (A) (A) (A) (A) (A) (A) (A) (A) (A) (A) (A)
                 (A) (A) (A) (A) (A) (A) (A) (A) (A) (A) (A) (A)
                 (A) (A) (A) (A) (A) (A) (A) (A) (A) (A) (A) (A)
                 (A) (A) (A) (A)
       Virtual   (A) (A) (A) (A) (A) (A) (A) (A) (A) (A) (A) (A)
                 (A) (A) (A) (A) (A) (A) (A) (A) (A) (A) (A) (A)
                 (A) (A) (A) (A) (A) (A) (A) (A) (A) (A) (A) (A)
                 (A) (A) (A) (A) (A) (A) (A) (A) (A) (A) (A) (A)
                 (A) (A) (A) (A) (A) (A) (A) (A) (A) (A) (A) (A)
                 (A) (A) (A) (A) (A) (A) (A) (A) (A) (A) (A) (A)
                 (A) (A) (A) (A) (A) (A) (A) (A) (A) (A) (A) (A)
                 (A) (A) (A) (A) (A) (A) (A) (A) (A) (A) (A) (A)
                 (A) (A) (A) (A) (A) (A) (A) (A) (A) (A) (A) (A)
                 (A) (A) (A) (A) (A) (A) (A) (A) (A) (A) (A) (A)
                 (A) (A) (A) (A) (A) (A) (A) (A) (A) (A) (A) (A)
                 (A) (A) (A) (A) (A) (A) (A) (A) (A) (A) (A) (A)
                 (A) (A) (A) (A) (A) (A) (A) (A) (A) (A) (A) (A)
                 (A) (A) (A) (A) (A) (A) (A) (A) (A) (A) (A) (A)
                 (A) (A) (A) (A) (A) (A) (A) (A) (A) (A) (A) (A)
                 (A) (A) (A) (A) (A) (A) (A) (A) (A) (A) (A) (A)
                 (A) (A) (A) (A) (A) (A) (A) (A) (A) (A) (A) (A)
                 (A) (A) (A) (A) (A) (A) (A) (A) (A) (A) (A) (A)
                 (A) (A) (A) (A) (A) (A) (A) (A) (A) (A)
 The electronic state is 1-A.
 Alpha  occ. eigenvalues --  -20.61307 -20.61285 -20.60182 -20.60168 -15.86347
 Alpha  occ. eigenvalues --  -15.85229 -11.31821 -11.30527 -11.28475 -11.28338
 Alpha  occ. eigenvalues --  -11.28111 -11.27466 -11.27364 -11.27152 -11.27048
 Alpha  occ. eigenvalues --  -11.26984 -11.26251 -11.26074  -1.60375  -1.59251
 Alpha  occ. eigenvalues --   -1.39927  -1.38808  -1.19991  -1.18702  -1.09357
 Alpha  occ. eigenvalues --   -1.08147  -1.05419  -1.04111  -0.96186  -0.94996
 Alpha  occ. eigenvalues --   -0.86807  -0.85547  -0.83019  -0.81837  -0.78069
 Alpha  occ. eigenvalues --   -0.76858  -0.72576  -0.71701  -0.71461  -0.71115
 Alpha  occ. eigenvalues --   -0.70564  -0.69943  -0.65643  -0.65422  -0.64403
 Alpha  occ. eigenvalues --   -0.64178  -0.62779  -0.61486  -0.55895  -0.54773
 Alpha  occ. eigenvalues --   -0.53725  -0.53496  -0.52371  -0.52259  -0.49338
 Alpha  occ. eigenvalues --   -0.49313  -0.48212  -0.48210  -0.45312  -0.44230
 Alpha  occ. eigenvalues --   -0.37951  -0.37026  -0.36631  -0.35650
 Alpha virt. eigenvalues --    0.04478   0.05656   0.10618   0.11949   0.15977
 Alpha virt. eigenvalues --    0.17005   0.19708   0.22068   0.25879   0.27265
 Alpha virt. eigenvalues --    0.27819   0.29356   0.30730   0.31138   0.32743
 Alpha virt. eigenvalues --    0.33742   0.34404   0.35452   0.37105   0.37692
 Alpha virt. eigenvalues --    0.42578   0.43660   0.44011   0.45306   0.45639
 Alpha virt. eigenvalues --    0.46890   0.48605   0.49835   0.50414   0.51975
 Alpha virt. eigenvalues --    0.55638   0.57546   0.66522   0.67893   0.68192
 Alpha virt. eigenvalues --    0.69436   0.69796   0.70830   0.71330   0.72651
 Alpha virt. eigenvalues --    0.76528   0.77260   0.78211   0.78541   0.78805
 Alpha virt. eigenvalues --    0.79032   0.79573   0.80021   0.80079   0.80510
 Alpha virt. eigenvalues --    0.81016   0.81252   0.81739   0.83195   0.85487
 Alpha virt. eigenvalues --    0.86454   0.86914   0.87352   0.88562   0.89435
 Alpha virt. eigenvalues --    0.93326   0.94242   0.95979   0.97348   1.00006
 Alpha virt. eigenvalues --    1.01036   1.02451   1.02730   1.04613   1.05182
 Alpha virt. eigenvalues --    1.07296   1.07490   1.07986   1.08238   1.09008
 Alpha virt. eigenvalues --    1.09336   1.09704   1.13361   1.15064   1.15148
 Alpha virt. eigenvalues --    1.16803   1.17207   1.18291   1.19640   1.19926
 Alpha virt. eigenvalues --    1.20366   1.22618   1.23178   1.24212   1.24900
 Alpha virt. eigenvalues --    1.27086   1.27927   1.28851   1.29964   1.30684
 Alpha virt. eigenvalues --    1.31401   1.31988   1.32637   1.34811   1.36151
 Alpha virt. eigenvalues --    1.39925   1.42032   1.46376   1.46452   1.47077
 Alpha virt. eigenvalues --    1.47836   1.52005   1.52965   1.53243   1.54981
 Alpha virt. eigenvalues --    1.59943   1.60941   1.64862   1.65992   1.66246
 Alpha virt. eigenvalues --    1.66491   1.66979   1.67525   1.68401   1.68634
 Alpha virt. eigenvalues --    1.71956   1.72654   1.73052   1.73221   1.74068
 Alpha virt. eigenvalues --    1.74563   1.74869   1.76171   1.96875   1.97618
 Alpha virt. eigenvalues --    1.98753   1.99346   1.99968   2.00457   2.03844
 Alpha virt. eigenvalues --    2.04071   2.05355   2.05455   2.09537   2.10641
 Alpha virt. eigenvalues --    2.11837   2.12904   2.13298   2.14403   2.21123
 Alpha virt. eigenvalues --    2.21143   2.22308   2.22854   2.24291   2.25434
 Alpha virt. eigenvalues --    2.26571   2.27767   2.32212   2.33876   2.35489
 Alpha virt. eigenvalues --    2.36856   2.37328   2.38411   2.42250   2.42675
 Alpha virt. eigenvalues --    2.43674   2.43900   2.44112   2.45087   2.45370
 Alpha virt. eigenvalues --    2.46221   2.46731   2.47764   2.57470   2.57957
 Alpha virt. eigenvalues --    2.58889   2.59036   2.59236   2.60214   2.70103
 Alpha virt. eigenvalues --    2.70890   2.80978   2.81985   2.82947   2.84115
 Alpha virt. eigenvalues --    2.91088   2.91342   2.91608   2.92566   2.92728
 Alpha virt. eigenvalues --    2.93077   2.99275   3.00573   3.04150   3.04160
 Alpha virt. eigenvalues --    3.05326   3.05403   3.06318   3.07539   3.10335
 Alpha virt. eigenvalues --    3.11110   3.23150   3.24093   3.25052   3.25177
 Alpha virt. eigenvalues --    3.28174   3.28745   3.42696   3.43678   3.52390
 Alpha virt. eigenvalues --    3.53528   3.76352   3.77630   4.12698   4.13581
 Alpha virt. eigenvalues --    4.28528   4.29209   4.37610   4.38420   4.47399
 Alpha virt. eigenvalues --    4.49470   4.50375   4.51576   4.52628   4.55266
 Alpha virt. eigenvalues --    4.71475   4.72879   4.76065   4.77667   5.08291
 Alpha virt. eigenvalues --    5.09711
          Condensed to atoms (all electrons):
               1          2          3          4          5          6
     1  C    4.860469   0.544792  -0.044193  -0.028928  -0.044707   0.540117
     2  C    0.544792   4.912648   0.524059  -0.038945  -0.030558  -0.041484
     3  C   -0.044193   0.524059   4.913918   0.547873  -0.052805  -0.030536
     4  C   -0.028928  -0.038945   0.547873   4.816949   0.549730  -0.039967
     5  C   -0.044707  -0.030558  -0.052805   0.549730   4.914768   0.523695
     6  C    0.540117  -0.041484  -0.030536  -0.039967   0.523695   4.933691
     7  H    0.381085  -0.026779   0.002182   0.000238   0.002210  -0.030944
     8  H   -0.027581   0.382176  -0.026889   0.001556   0.000217   0.002318
     9  H    0.001963  -0.023850   0.368488  -0.019919   0.002553  -0.000043
    10  H    0.001907  -0.000056   0.002574  -0.019341   0.368558  -0.024518
    11  H   -0.029260   0.002363   0.000212   0.001566  -0.027050   0.382605
    12  N    0.000020   0.001500  -0.044375   0.244678  -0.044661   0.001518
    13  O   -0.000003  -0.000028   0.003707  -0.087903   0.004014   0.000776
    14  O   -0.000004   0.000769   0.003894  -0.087624   0.003719  -0.000028
    15  C    0.000000   0.000000  -0.000000  -0.000000  -0.000000   0.000000
    16  C    0.000009   0.000000  -0.000000   0.000000  -0.000000  -0.000002
    17  C   -0.001057  -0.000015   0.000001   0.000001   0.000000  -0.000308
    18  C   -0.000028  -0.000003  -0.000000  -0.000000   0.000000  -0.000000
    19  C   -0.000000  -0.000000  -0.000000  -0.000000   0.000000   0.000000
    20  C   -0.000000   0.000000   0.000000   0.000000   0.000000  -0.000000
    21  H    0.000000   0.000000  -0.000000  -0.000000  -0.000000   0.000000
    22  H   -0.000000  -0.000000   0.000000   0.000000   0.000000  -0.000001
    23  H    0.002082   0.000093  -0.000007  -0.000007   0.000007   0.000984
    24  H    0.000000   0.000000  -0.000000  -0.000000   0.000000   0.000000
    25  H   -0.000000  -0.000000   0.000000   0.000000  -0.000000  -0.000000
    26  N    0.000091   0.000047   0.000003  -0.000001  -0.000002   0.000001
    27  O    0.000000  -0.000000  -0.000000   0.000000  -0.000000  -0.000000
    28  O    0.000635   0.000145  -0.000024   0.000004  -0.000029   0.000064
               7          8          9         10         11         12
     1  C    0.381085  -0.027581   0.001963   0.001907  -0.029260   0.000020
     2  C   -0.026779   0.382176  -0.023850  -0.000056   0.002363   0.001500
     3  C    0.002182  -0.026889   0.368488   0.002574   0.000212  -0.044375
     4  C    0.000238   0.001556  -0.019919  -0.019341   0.001566   0.244678
     5  C    0.002210   0.000217   0.002553   0.368558  -0.027050  -0.044661
     6  C   -0.030944   0.002318  -0.000043  -0.024518   0.382605   0.001518
     7  H    0.463000  -0.001245  -0.000074  -0.000073  -0.001336   0.000003
     8  H   -0.001245   0.447290  -0.001118   0.000007  -0.000095  -0.000050
     9  H   -0.000074  -0.001118   0.393109  -0.000076   0.000007  -0.005344
    10  H   -0.000073   0.000007  -0.000076   0.395410  -0.001141  -0.005402
    11  H   -0.001336  -0.000095   0.000007  -0.001141   0.457730  -0.000051
    12  N    0.000003  -0.000050  -0.005344  -0.005402  -0.000051   5.733790
    13  O    0.000000   0.000000   0.000047   0.009102  -0.000001   0.314866
    14  O    0.000000  -0.000001   0.008954   0.000048   0.000000   0.315287
    15  C   -0.000000   0.000000   0.000000   0.000000   0.000000  -0.000000
    16  C   -0.000014   0.000000  -0.000000  -0.000000   0.000003  -0.000000
    17  C    0.000266  -0.000000   0.000000   0.000000   0.000047  -0.000000
    18  C    0.000022  -0.000000  -0.000000  -0.000000   0.000002   0.000000
    19  C    0.000000  -0.000000   0.000000   0.000000  -0.000000   0.000000
    20  C    0.000000   0.000000  -0.000000   0.000000  -0.000000  -0.000000
    21  H   -0.000000   0.000000  -0.000000  -0.000000  -0.000000   0.000000
    22  H    0.000005  -0.000000  -0.000000  -0.000000   0.000001  -0.000000
    23  H    0.000496  -0.000002  -0.000000  -0.000000   0.000061  -0.000000
    24  H   -0.000000   0.000000  -0.000000  -0.000000  -0.000000   0.000000
    25  H   -0.000000   0.000000   0.000000   0.000000  -0.000000   0.000000
    26  N    0.000003   0.000001   0.000000   0.000000  -0.000000  -0.000000
    27  O   -0.000000  -0.000000   0.000000  -0.000000  -0.000000   0.000000
    28  O   -0.000231   0.000019  -0.000000  -0.000000  -0.000002  -0.000000
              13         14         15         16         17         18
     1  C   -0.000003  -0.000004   0.000000   0.000009  -0.001057  -0.000028
     2  C   -0.000028   0.000769   0.000000   0.000000  -0.000015  -0.000003
     3  C    0.003707   0.003894  -0.000000  -0.000000   0.000001  -0.000000
     4  C   -0.087903  -0.087624  -0.000000   0.000000   0.000001  -0.000000
     5  C    0.004014   0.003719  -0.000000  -0.000000   0.000000   0.000000
     6  C    0.000776  -0.000028   0.000000  -0.000002  -0.000308  -0.000000
     7  H    0.000000   0.000000  -0.000000  -0.000014   0.000266   0.000022
     8  H    0.000000  -0.000001   0.000000   0.000000  -0.000000  -0.000000
     9  H    0.000047   0.008954   0.000000  -0.000000   0.000000  -0.000000
    10  H    0.009102   0.000048   0.000000  -0.000000   0.000000  -0.000000
    11  H   -0.000001   0.000000   0.000000   0.000003   0.000047   0.000002
    12  N    0.314866   0.315287  -0.000000  -0.000000  -0.000000   0.000000
    13  O    8.305898  -0.087594   0.000000  -0.000000  -0.000000   0.000000
    14  O   -0.087594   8.303071   0.000000  -0.000000  -0.000000   0.000000
    15  C    0.000000   0.000000   4.875001   0.541777  -0.044903  -0.029361
    16  C   -0.000000  -0.000000   0.541777   4.937127   0.520351  -0.038297
    17  C   -0.000000  -0.000000  -0.044903   0.520351   4.928038   0.549130
    18  C    0.000000   0.000000  -0.029361  -0.038297   0.549130   4.820961
    19  C    0.000000   0.000000  -0.045346  -0.030690  -0.053238   0.548206
    20  C   -0.000000  -0.000000   0.542534  -0.043377  -0.030518  -0.039546
    21  H    0.000000   0.000000   0.381236  -0.028005   0.002161   0.000214
    22  H   -0.000000  -0.000000  -0.027077   0.382491  -0.028034   0.001567
    23  H    0.000000   0.000000   0.001962  -0.025796   0.364310  -0.018989
    24  H    0.000000   0.000000   0.001930  -0.000069   0.002611  -0.019481
    25  H   -0.000000   0.000000  -0.027512   0.002342   0.000205   0.001556
    26  N    0.000000   0.000000  -0.000005   0.001552  -0.044670   0.242875
    27  O   -0.000000  -0.000000  -0.000004  -0.000026   0.003744  -0.087983
    28  O    0.000000   0.000000  -0.000009   0.000860   0.005366  -0.088321
              19         20         21         22         23         24
     1  C   -0.000000  -0.000000   0.000000  -0.000000   0.002082   0.000000
     2  C   -0.000000   0.000000   0.000000  -0.000000   0.000093   0.000000
     3  C   -0.000000   0.000000  -0.000000   0.000000  -0.000007  -0.000000
     4  C   -0.000000   0.000000  -0.000000   0.000000  -0.000007  -0.000000
     5  C    0.000000   0.000000  -0.000000   0.000000   0.000007   0.000000
     6  C    0.000000  -0.000000   0.000000  -0.000001   0.000984   0.000000
     7  H    0.000000   0.000000  -0.000000   0.000005   0.000496  -0.000000
     8  H   -0.000000   0.000000   0.000000  -0.000000  -0.000002   0.000000
     9  H    0.000000  -0.000000  -0.000000  -0.000000  -0.000000  -0.000000
    10  H    0.000000   0.000000  -0.000000  -0.000000  -0.000000  -0.000000
    11  H   -0.000000  -0.000000  -0.000000   0.000001   0.000061  -0.000000
    12  N    0.000000  -0.000000   0.000000  -0.000000  -0.000000   0.000000
    13  O    0.000000  -0.000000   0.000000  -0.000000   0.000000   0.000000
    14  O    0.000000  -0.000000   0.000000  -0.000000   0.000000   0.000000
    15  C   -0.045346   0.542534   0.381236  -0.027077   0.001962   0.001930
    16  C   -0.030690  -0.043377  -0.028005   0.382491  -0.025796  -0.000069
    17  C   -0.053238  -0.030518   0.002161  -0.028034   0.364310   0.002611
    18  C    0.548206  -0.039546   0.000214   0.001567  -0.018989  -0.019481
    19  C    4.919276   0.522026   0.002161   0.000207   0.002662   0.368119
    20  C    0.522026   4.931777  -0.027650   0.002334  -0.000068  -0.023885
    21  H    0.002161  -0.027650   0.444948  -0.001187  -0.000072  -0.000070
    22  H    0.000207   0.002334  -0.001187   0.449456  -0.001045   0.000007
    23  H    0.002662  -0.000068  -0.000072  -0.001045   0.400492  -0.000075
    24  H    0.368119  -0.023885  -0.000070   0.000007  -0.000075   0.390337
    25  H   -0.027104   0.382382  -0.001179  -0.000094   0.000007  -0.001090
    26  N   -0.044399   0.001543   0.000002  -0.000049  -0.005377  -0.005408
    27  O    0.003948   0.000771   0.000000   0.000000   0.000026   0.009088
    28  O    0.003651  -0.000023  -0.000000   0.000000   0.007139   0.000045
              25         26         27         28
     1  C   -0.000000   0.000091   0.000000   0.000635
     2  C   -0.000000   0.000047  -0.000000   0.000145
     3  C    0.000000   0.000003  -0.000000  -0.000024
     4  C    0.000000  -0.000001   0.000000   0.000004
     5  C   -0.000000  -0.000002  -0.000000  -0.000029
     6  C   -0.000000   0.000001  -0.000000   0.000064
     7  H   -0.000000   0.000003  -0.000000  -0.000231
     8  H    0.000000   0.000001  -0.000000   0.000019
     9  H    0.000000   0.000000   0.000000  -0.000000
    10  H    0.000000   0.000000  -0.000000  -0.000000
    11  H   -0.000000  -0.000000  -0.000000  -0.000002
    12  N    0.000000  -0.000000   0.000000  -0.000000
    13  O   -0.000000   0.000000  -0.000000   0.000000
    14  O    0.000000   0.000000  -0.000000   0.000000
    15  C   -0.027512  -0.000005  -0.000004  -0.000009
    16  C    0.002342   0.001552  -0.000026   0.000860
    17  C    0.000205  -0.044670   0.003744   0.005366
    18  C    0.001556   0.242875  -0.087983  -0.088321
    19  C   -0.027104  -0.044399   0.003948   0.003651
    20  C    0.382382   0.001543   0.000771  -0.000023
    21  H   -0.001179   0.000002   0.000000  -0.000000
    22  H   -0.000094  -0.000049   0.000000   0.000000
    23  H    0.000007  -0.005377   0.000026   0.007139
    24  H   -0.001090  -0.005408   0.009088   0.000045
    25  H    0.444588  -0.000049  -0.000001   0.000000
    26  N   -0.000049   5.741888   0.314362   0.308434
    27  O   -0.000001   0.314362   8.300471  -0.087168
    28  O    0.000000   0.308434  -0.087168   8.313144
 Mulliken charges:
               1
     1  C   -0.157410
     2  C   -0.206875
     3  C   -0.168081
     4  C    0.160038
     5  C   -0.169659
     6  C   -0.217939
     7  H    0.211189
     8  H    0.223396
     9  H    0.275304
    10  H    0.273002
    11  H    0.214337
    12  N    0.488221
    13  O   -0.462882
    14  O   -0.460491
    15  C   -0.170222
    16  C   -0.220236
    17  C   -0.173488
    18  C    0.157476
    19  C   -0.169479
    20  C   -0.218300
    21  H    0.227441
    22  H    0.221420
    23  H    0.271118
    24  H    0.277943
    25  H    0.225947
    26  N    0.489155
    27  O   -0.457229
    28  O   -0.463697
 Sum of Mulliken charges =  -0.00000
 Mulliken charges with hydrogens summed into heavy atoms:
               1
     1  C    0.053779
     2  C    0.016522
     3  C    0.107223
     4  C    0.160038
     5  C    0.103343
     6  C   -0.003602
    12  N    0.488221
    13  O   -0.462882
    14  O   -0.460491
    15  C    0.057219
    16  C    0.001184
    17  C    0.097630
    18  C    0.157476
    19  C    0.108464
    20  C    0.007647
    26  N    0.489155
    27  O   -0.457229
    28  O   -0.463697
 Electronic spatial extent (au):  <R**2>=           7212.6005
 Charge=             -0.0000 electrons
 Dipole moment (field-independent basis, Debye):
    X=              7.9775    Y=             -5.5328    Z=              1.4753  Tot=              9.8198
 Quadrupole moment (field-independent basis, Debye-Ang):
   XX=           -108.8709   YY=           -104.6923   ZZ=           -102.1518
   XY=             -0.5009   XZ=            -12.8627   YZ=              0.7829
 Traceless Quadrupole moment (field-independent basis, Debye-Ang):
   XX=             -3.6325   YY=              0.5460   ZZ=              3.0865
   XY=             -0.5009   XZ=            -12.8627   YZ=              0.7829
 Octapole moment (field-independent basis, Debye-Ang**2):
  XXX=            312.1308  YYY=            -15.7674  ZZZ=             14.6395  XYY=              9.7769
  XXY=            -44.8647  XXZ=             17.5681  XZZ=             -8.2956  YZZ=              9.3231
  YYZ=             -8.0659  XYZ=            -10.4041
 Hexadecapole moment (field-independent basis, Debye-Ang**3):
 XXXX=          -8090.3003 YYYY=          -1090.9353 ZZZZ=           -538.1638 XXXY=            141.6857
 XXXZ=           -385.1277 YYYX=            -90.1032 YYYZ=              9.0618 ZZZX=             -3.8055
 ZZZY=             14.2945 XXYY=          -1458.0508 XXZZ=          -1510.8277 YYZZ=           -263.2933
 XXYZ=             31.2033 YYXZ=             16.7963 ZZXY=              7.2271
 N-N= 1.156070239768D+03 E-N=-4.345241612773D+03  KE= 8.656923184257D+02
 Leave Link  601 at Thu May  6 08:18:53 2021, MaxMem=   524288000 cpu:               0.6 elap:               0.6
 (Enter /opt/gaussian/g16_legacy/l9999.exe)
 1\1\GINC-TRUENO91\SP\RMP2-FC\6-31G(d)\C12H10N2O4\JRAMOS\06-May-2021\0\
 \#p 6-31g* mp2\\Input file generated by CHIRIPA (05-May-2021 14:57:25)
 \\0,1\C,0,1.914143,0.,0.\C,0,1.214143,1.211,0.\C,0,-0.183857,1.223,0.\
 C,0,-0.852857,0.,0.\C,0,-0.183857,-1.223,0.\C,0,1.214143,-1.211,0.\H,0
 ,3.000143,0.,0.\H,0,1.755143,2.153,0.\H,0,-0.750857,2.146,0.\H,0,-0.75
 0857,-2.146,0.\H,0,1.755143,-2.153,0.\N,0,-2.332857,0.,0.\O,0,-2.89885
 7,-1.091,0.\O,0,-2.898857,1.091,0.\C,0,6.254957,-2.395492,-4.247403\C,
 0,5.579491,-2.040132,-3.075231\C,0,4.470571,-1.19019,-3.124661\C,0,4.0
 6249,-0.711856,-4.36883\C,0,4.714589,-1.047654,-5.554282\C,0,5.821115,
 -1.898994,-5.481012\H,0,7.115463,-3.05629,-4.199745\H,0,5.914184,-2.42
 4208,-2.115798\H,0,3.929221,-0.898974,-2.232724\H,0,4.3574,-0.648865,-
 6.495983\H,0,6.343759,-2.173283,-6.392963\N,0,2.889793,0.18868,-4.4337
 78\O,0,2.550156,0.59665,-5.54231\O,0,2.332475,0.469498,-3.374922\\Vers
 ion=EM64L-G16RevA.03\State=1-A\HF=-868.3363775\MP2=-870.9379345\RMSD=2
 .980e-09\PG=C01 [X(C12H10N2O4)]\\@


                                                                                    A
                                                                                  AA
                                                                                 AAA
                                                                                AAAA
                                                                               AAAAA
                                                                              AAAAAA   KKKKKKKK
                                                                             AAAAAAA   KKKKKKKK
                                                                            AAAAAAAA   KKKKKKKK
                                       ZZZZZZZZZZZZZZZZZZZZ                AAAA  AAA   KKKKKKKK
                                       ZZZZZZZZZZZZZZZZZZZ                AAAA   AAA   KKKKKKKK          K
                                       ZZZZZZZZZZZZZZZZZZ                AAAA    AAA   KKKKKKKK         KKK
                                       ZZZZZZZZZZZZZZZZZ                AAAA     AAA   KKKKKKKK        KKKKK
                                       ZZZZZZZZZZZZZZZZ                AAAA      AAA   KKKKKKKK       KKKKKKK
                                                ZZZZZZ                AAAA       AAA   KKKKKKKK      KKKKKKK
                                               ZZZZZZ                AAAA        AAA   KKKKKKKK     KKKKKKK
                                              ZZZZZZ                AAAA         AAA   KKKKKKKK    KKKKKKK
                                             ZZZZZZ                AAAA          AAA   KKKKKKKK   KKKKKKK
                                            ZZZZZZ                AAAAAAAAAAAAAAAAAA   KKKKKKKK  KKKKKKK
                                           ZZZZZZ                AAAAAAAAAAAAAAAAAAA   KKKKKKKK KKKKKKK
                                          ZZZZZZ                AAAAAAAAAAAAAAAAAAAA   KKKKKKKKKKKKKKK
                                         ZZZZZZ                AAAAAAAAAAAAAAAAAAAAA   KKKKKKKKKKKKKK
                                        ZZZZZZ                AAAAAA        AAAAAAAA   KKKKKKKKKKKKK
                                       ZZZZZZ                AAAAAA         AAAAAAAA   KKKKKKKKKKKK
                                      ZZZZZZ                AAAAAA          AAAAAAAA   KKKKKKKKKKK
                                     ZZZZZZ                AAAAAA           AAAAAAAA   KKKKKKKKKKKK
                                    ZZZZZZ                AAAAAA            AAAAAAAA   KKKKKKKKKKKKK
                                   ZZZZZZ                AAAAAA             AAAAAAAA   KKKKKKKKKKKKKK
                                  ZZZZZZ                AAAAAA              AAAAAAAA   KKKKKKKKKKKKKKK
                                 ZZZZZZ                AAAAAA               AAAAAAAA   KKKKK KKKKKKKKKK
                                ZZZZZZ                AAAAAA                AAAAAAAA   KKKKK  KKKKKKKKKK
                               ZZZZZZ                AAAAAA                            KKKKK   KKKKKKKKKK
                              ZZZZZZ                AAAAAA                             KKKKK    KKKKKKKKKK
                             ZZZZZZ                                                    KKKKK     KKKKKKKKKK
                            ZZZZZZ                                                     KKKKK      KKKKKKKKKK
                           ZZZZZZ                                                      KKKKK       KKKKKKKKKK
                          ZZZZZZ                                                       KKKKK        KKKKKKKKKK
                         ZZZZZZZZZZZZZZZZZZZZZZZZZZZZZZZZZZZZZZZZ                      KKKKK         KKKKKKKKKK
                        ZZZZZZZZZZZZZZZZZZZZZZZZZZZZZZZZZZZZZZZZZ                      KKKKK          KKKKKKKKKK
                       ZZZZZZZZZZZZZZZZZZZZZZZZZZZZZZZZZZZZZZZZZZ                      KKKKK           KKKKKKKKKK
                       ZZZZZZZZZZZZZZZZZZZZZZZZZZZZZZZZZZZZZZZZZZ                      KKKKK            KKKKKKKKKK
                       ZZZZZZZZZZZZZZZZZZZZZZZZZZZZZZZZZZZZZZZZZZ                      KKKKK             KKKKKKKKKK
                       ZZZZZZZZZZZZZZZZZZZZZZZZZZZZZZZZZZZZZZZZZZ                      KKKKK              KKKKKKKKKK
                       ZZZZZZZZZZZZZZZZZZZZZZZZZZZZZZZZZZZZZZZZZZ                      KKKKK               KKKKKKKKKK
                       ZZZZZZZZZZZZZZZZZZZZZZZZZZZZZZZZZZZZZZZZZZ                      KKKKK                KKKKKKKKKK
                       ZZZZZZZZZZZZZZZZZZZZZZZZZZZZZZZZZZZZZZZZZZ                      KKKKK
                                                                                       KKKKK
                                                                                          (J.P.)
 Job cpu time:       0 days  0 hours  5 minutes 57.5 seconds.
 Elapsed time:       0 days  0 hours  3 minutes  2.4 seconds.
 File lengths (MBytes):  RWF=     50 Int=      0 D2E=      0 Chk=      7 Scr=      1
 Normal termination of Gaussian 16 at Thu May  6 08:18:53 2021.
