 Entering Gaussian System, Link 0=g16
 Input=/home/jramos/PycharmProjects/CHIPAR_2/data/opt_pm6/pet_pm6.gjf
 Output=/home/jramos/PycharmProjects/CHIPAR_2/data/opt_pm6/pet_pm6.log
 Initial command:
 /opt/g16/l1.exe "/scratch-global/Gau-8135.inp" -scrdir="/scratch-global/"
 Entering Link 1 = /opt/g16/l1.exe PID=      8138.
  
 Copyright (c) 1988,1990,1992,1993,1995,1998,2003,2009,2016,
            Gaussian, Inc.  All Rights Reserved.
  
 This is part of the Gaussian(R) 16 program.  It is based on
 the Gaussian(R) 09 system (copyright 2009, Gaussian, Inc.),
 the Gaussian(R) 03 system (copyright 2003, Gaussian, Inc.),
 the Gaussian(R) 98 system (copyright 1998, Gaussian, Inc.),
 the Gaussian(R) 94 system (copyright 1995, Gaussian, Inc.),
 the Gaussian 92(TM) system (copyright 1992, Gaussian, Inc.),
 the Gaussian 90(TM) system (copyright 1990, Gaussian, Inc.),
 the Gaussian 88(TM) system (copyright 1988, Gaussian, Inc.),
 the Gaussian 86(TM) system (copyright 1986, Carnegie Mellon
 University), and the Gaussian 82(TM) system (copyright 1983,
 Carnegie Mellon University). Gaussian is a federally registered
 trademark of Gaussian, Inc.
  
 This software contains proprietary and confidential information,
 including trade secrets, belonging to Gaussian, Inc.
  
 This software is provided under written license and may be
 used, copied, transmitted, or stored only in accord with that
 written license.
  
 The following legend is applicable only to US Government
 contracts under FAR:
  
                    RESTRICTED RIGHTS LEGEND
  
 Use, reproduction and disclosure by the US Government is
 subject to restrictions as set forth in subparagraphs (a)
 and (c) of the Commercial Computer Software - Restricted
 Rights clause in FAR 52.227-19.
  
 Gaussian, Inc.
 340 Quinnipiac St., Bldg. 40, Wallingford CT 06492
  
  
 ---------------------------------------------------------------
 Warning -- This program may not be used in any manner that
 competes with the business of Gaussian, Inc. or will provide
 assistance to any competitor of Gaussian, Inc.  The licensee
 of this program is prohibited from giving any competitor of
 Gaussian, Inc. access to this program.  By using this program,
 the user acknowledges that Gaussian, Inc. is engaged in the
 business of creating and licensing software in the field of
 computational chemistry and represents and warrants to the
 licensee that it is not a competitor of Gaussian, Inc. and that
 it will not use this program in any manner prohibited above.
 ---------------------------------------------------------------
  

 Cite this work as:
 Gaussian 16, Revision A.03,
 M. J. Frisch, G. W. Trucks, H. B. Schlegel, G. E. Scuseria, 
 M. A. Robb, J. R. Cheeseman, G. Scalmani, V. Barone, 
 G. A. Petersson, H. Nakatsuji, X. Li, M. Caricato, A. V. Marenich, 
 J. Bloino, B. G. Janesko, R. Gomperts, B. Mennucci, H. P. Hratchian, 
 J. V. Ortiz, A. F. Izmaylov, J. L. Sonnenberg, D. Williams-Young, 
 F. Ding, F. Lipparini, F. Egidi, J. Goings, B. Peng, A. Petrone, 
 T. Henderson, D. Ranasinghe, V. G. Zakrzewski, J. Gao, N. Rega, 
 G. Zheng, W. Liang, M. Hada, M. Ehara, K. Toyota, R. Fukuda, 
 J. Hasegawa, M. Ishida, T. Nakajima, Y. Honda, O. Kitao, H. Nakai, 
 T. Vreven, K. Throssell, J. A. Montgomery, Jr., J. E. Peralta, 
 F. Ogliaro, M. J. Bearpark, J. J. Heyd, E. N. Brothers, K. N. Kudin, 
 V. N. Staroverov, T. A. Keith, R. Kobayashi, J. Normand, 
 K. Raghavachari, A. P. Rendell, J. C. Burant, S. S. Iyengar, 
 J. Tomasi, M. Cossi, J. M. Millam, M. Klene, C. Adamo, R. Cammi, 
 J. W. Ochterski, R. L. Martin, K. Morokuma, O. Farkas, 
 J. B. Foresman, and D. J. Fox, Gaussian, Inc., Wallingford CT, 2016.
 
 ******************************************
 Gaussian 16:  ES64L-G16RevA.03 25-Dec-2016
                14-Oct-2019 
 ******************************************
 %chk=pet_pm6.chk
 ---------------------------
 # opt pm6 geom=connectivity
 ---------------------------
 1/18=20,19=15,26=1,38=1,57=2/1,3;
 2/9=110,12=2,17=6,18=5,40=1/2;
 3/5=2,25=1,41=3900000,71=1/1,2,3;
 4/35=1/1;
 5/5=2,35=1,38=5/2;
 6/7=2,8=2,9=2,10=2,28=1/1;
 7//1,2,3,16;
 1/18=20,19=15,26=1/3(2);
 2/9=110/2;
 99//99;
 2/9=110/2;
 3/5=2,25=1,41=3900000,71=1,135=20/1,2,3;
 4/5=5,16=3,35=1/1;
 5/5=2,35=1,38=5/2;
 7//1,2,3,16;
 1/18=20,19=15,26=1/3(-5);
 2/9=110/2;
 6/7=2,8=2,9=2,10=2,19=2,28=1/1;
 99/9=1/99;
 -------------------
 Title Card Required
 -------------------
 Symbolic Z-matrix:
 Charge =  0 Multiplicity = 1
 C                    -0.02149   0.38288  -0.27049 
 C                     1.28375   0.88886  -0.20523 
 C                     1.49682   2.24146   0.09307 
 C                     0.40465   3.08809   0.32611 
 C                    -0.90059   2.58212   0.26086 
 C                    -1.11366   1.22951  -0.03744 
 H                    -0.18418  -0.64986  -0.49825 
 H                     2.11764   0.24244  -0.38316 
 H                     0.56734   4.12084   0.55388 
 H                    -1.73449   3.22854   0.43879 
 C                     2.93115   2.79748   0.16478 
 O                     3.12248   4.01206   0.43264 
 O                     4.04561   1.93357  -0.07302 
 C                    -2.54799   0.6735   -0.10915 
 O                    -3.52872   1.43374   0.10011 
 O                    -2.76541  -0.70671  -0.41355 
 H                    -3.60493  -0.80566  -0.86855 
 C                     5.17227   2.39082   0.67961 
 C                     6.37246   1.46046   0.42352 
 H                     4.93148   2.3836    1.72214 
 H                     5.42221   3.38659   0.37817 
 H                     7.21549   1.80259   0.98667 
 H                     6.12252   0.46468   0.72496 
 H                     6.61326   1.46768  -0.61901 
 

 GradGradGradGradGradGradGradGradGradGradGradGradGradGradGradGradGradGrad
 Berny optimization.
 Initialization pass.
                           ----------------------------
                           !    Initial Parameters    !
                           ! (Angstroms and Degrees)  !
 --------------------------                            --------------------------
 ! Name  Definition              Value          Derivative Info.                !
 --------------------------------------------------------------------------------
 ! R1    R(1,2)                  1.4014         estimate D2E/DX2                !
 ! R2    R(1,6)                  1.4014         estimate D2E/DX2                !
 ! R3    R(1,7)                  1.07           estimate D2E/DX2                !
 ! R4    R(2,3)                  1.4014         estimate D2E/DX2                !
 ! R5    R(2,8)                  1.07           estimate D2E/DX2                !
 ! R6    R(3,4)                  1.4014         estimate D2E/DX2                !
 ! R7    R(3,11)                 1.54           estimate D2E/DX2                !
 ! R8    R(4,5)                  1.4014         estimate D2E/DX2                !
 ! R9    R(4,9)                  1.07           estimate D2E/DX2                !
 ! R10   R(5,6)                  1.4014         estimate D2E/DX2                !
 ! R11   R(5,10)                 1.07           estimate D2E/DX2                !
 ! R12   R(6,14)                 1.54           estimate D2E/DX2                !
 ! R13   R(11,12)                1.2584         estimate D2E/DX2                !
 ! R14   R(11,13)                1.43           estimate D2E/DX2                !
 ! R15   R(13,18)                1.43           estimate D2E/DX2                !
 ! R16   R(14,15)                1.2584         estimate D2E/DX2                !
 ! R17   R(14,16)                1.43           estimate D2E/DX2                !
 ! R18   R(16,17)                0.96           estimate D2E/DX2                !
 ! R19   R(18,19)                1.54           estimate D2E/DX2                !
 ! R20   R(18,20)                1.07           estimate D2E/DX2                !
 ! R21   R(18,21)                1.07           estimate D2E/DX2                !
 ! R22   R(19,22)                1.07           estimate D2E/DX2                !
 ! R23   R(19,23)                1.07           estimate D2E/DX2                !
 ! R24   R(19,24)                1.07           estimate D2E/DX2                !
 ! A1    A(2,1,6)              120.0            estimate D2E/DX2                !
 ! A2    A(2,1,7)              120.0            estimate D2E/DX2                !
 ! A3    A(6,1,7)              120.0            estimate D2E/DX2                !
 ! A4    A(1,2,3)              120.0            estimate D2E/DX2                !
 ! A5    A(1,2,8)              120.0            estimate D2E/DX2                !
 ! A6    A(3,2,8)              120.0            estimate D2E/DX2                !
 ! A7    A(2,3,4)              120.0            estimate D2E/DX2                !
 ! A8    A(2,3,11)             120.0            estimate D2E/DX2                !
 ! A9    A(4,3,11)             120.0            estimate D2E/DX2                !
 ! A10   A(3,4,5)              120.0            estimate D2E/DX2                !
 ! A11   A(3,4,9)              120.0            estimate D2E/DX2                !
 ! A12   A(5,4,9)              120.0            estimate D2E/DX2                !
 ! A13   A(4,5,6)              120.0            estimate D2E/DX2                !
 ! A14   A(4,5,10)             120.0            estimate D2E/DX2                !
 ! A15   A(6,5,10)             120.0            estimate D2E/DX2                !
 ! A16   A(1,6,5)              120.0            estimate D2E/DX2                !
 ! A17   A(1,6,14)             120.0            estimate D2E/DX2                !
 ! A18   A(5,6,14)             120.0            estimate D2E/DX2                !
 ! A19   A(3,11,12)            120.0            estimate D2E/DX2                !
 ! A20   A(3,11,13)            120.0            estimate D2E/DX2                !
 ! A21   A(12,11,13)           120.0            estimate D2E/DX2                !
 ! A22   A(11,13,18)           109.4712         estimate D2E/DX2                !
 ! A23   A(6,14,15)            120.0            estimate D2E/DX2                !
 ! A24   A(6,14,16)            120.0            estimate D2E/DX2                !
 ! A25   A(15,14,16)           120.0            estimate D2E/DX2                !
 ! A26   A(14,16,17)           109.4712         estimate D2E/DX2                !
 ! A27   A(13,18,19)           109.4712         estimate D2E/DX2                !
 ! A28   A(13,18,20)           109.4712         estimate D2E/DX2                !
 ! A29   A(13,18,21)           109.4712         estimate D2E/DX2                !
 ! A30   A(19,18,20)           109.4712         estimate D2E/DX2                !
 ! A31   A(19,18,21)           109.4712         estimate D2E/DX2                !
 ! A32   A(20,18,21)           109.4712         estimate D2E/DX2                !
 ! A33   A(18,19,22)           109.4712         estimate D2E/DX2                !
 ! A34   A(18,19,23)           109.4712         estimate D2E/DX2                !
 ! A35   A(18,19,24)           109.4712         estimate D2E/DX2                !
 ! A36   A(22,19,23)           109.4712         estimate D2E/DX2                !
 ! A37   A(22,19,24)           109.4712         estimate D2E/DX2                !
 ! A38   A(23,19,24)           109.4712         estimate D2E/DX2                !
 ! D1    D(6,1,2,3)              0.0            estimate D2E/DX2                !
 ! D2    D(6,1,2,8)            179.9998         estimate D2E/DX2                !
 ! D3    D(7,1,2,3)           -179.9999         estimate D2E/DX2                !
 ! D4    D(7,1,2,8)             -0.0001         estimate D2E/DX2                !
 ! D5    D(2,1,6,5)              0.0001         estimate D2E/DX2                !
 ! D6    D(2,1,6,14)           179.9998         estimate D2E/DX2                !
 ! D7    D(7,1,6,5)            179.9999         estimate D2E/DX2                !
 ! D8    D(7,1,6,14)            -0.0003         estimate D2E/DX2                !
 ! D9    D(1,2,3,4)              0.0            estimate D2E/DX2                !
 ! D10   D(1,2,3,11)           179.9998         estimate D2E/DX2                !
 ! D11   D(8,2,3,4)           -179.9998         estimate D2E/DX2                !
 ! D12   D(8,2,3,11)             0.0            estimate D2E/DX2                !
 ! D13   D(2,3,4,5)             -0.0001         estimate D2E/DX2                !
 ! D14   D(2,3,4,9)            179.9998         estimate D2E/DX2                !
 ! D15   D(11,3,4,5)          -179.9999         estimate D2E/DX2                !
 ! D16   D(11,3,4,9)             0.0            estimate D2E/DX2                !
 ! D17   D(2,3,11,12)         -180.0            estimate D2E/DX2                !
 ! D18   D(2,3,11,13)            0.0            estimate D2E/DX2                !
 ! D19   D(4,3,11,12)           -0.0002         estimate D2E/DX2                !
 ! D20   D(4,3,11,13)          179.9998         estimate D2E/DX2                !
 ! D21   D(3,4,5,6)              0.0001         estimate D2E/DX2                !
 ! D22   D(3,4,5,10)          -179.9999         estimate D2E/DX2                !
 ! D23   D(9,4,5,6)           -179.9998         estimate D2E/DX2                !
 ! D24   D(9,4,5,10)             0.0002         estimate D2E/DX2                !
 ! D25   D(4,5,6,1)             -0.0001         estimate D2E/DX2                !
 ! D26   D(4,5,6,14)          -179.9999         estimate D2E/DX2                !
 ! D27   D(10,5,6,1)           179.9999         estimate D2E/DX2                !
 ! D28   D(10,5,6,14)            0.0002         estimate D2E/DX2                !
 ! D29   D(1,6,14,15)         -180.0            estimate D2E/DX2                !
 ! D30   D(1,6,14,16)            0.0            estimate D2E/DX2                !
 ! D31   D(5,6,14,15)           -0.0002         estimate D2E/DX2                !
 ! D32   D(5,6,14,16)          179.9998         estimate D2E/DX2                !
 ! D33   D(3,11,13,18)        -150.0            estimate D2E/DX2                !
 ! D34   D(12,11,13,18)         30.0            estimate D2E/DX2                !
 ! D35   D(11,13,18,19)        180.0            estimate D2E/DX2                !
 ! D36   D(11,13,18,20)         60.0            estimate D2E/DX2                !
 ! D37   D(11,13,18,21)        -60.0            estimate D2E/DX2                !
 ! D38   D(6,14,16,17)        -150.0            estimate D2E/DX2                !
 ! D39   D(15,14,16,17)         30.0            estimate D2E/DX2                !
 ! D40   D(13,18,19,22)        180.0            estimate D2E/DX2                !
 ! D41   D(13,18,19,23)        -60.0            estimate D2E/DX2                !
 ! D42   D(13,18,19,24)         60.0            estimate D2E/DX2                !
 ! D43   D(20,18,19,22)        -60.0            estimate D2E/DX2                !
 ! D44   D(20,18,19,23)         60.0            estimate D2E/DX2                !
 ! D45   D(20,18,19,24)        180.0            estimate D2E/DX2                !
 ! D46   D(21,18,19,22)         60.0            estimate D2E/DX2                !
 ! D47   D(21,18,19,23)        180.0            estimate D2E/DX2                !
 ! D48   D(21,18,19,24)        -60.0            estimate D2E/DX2                !
 --------------------------------------------------------------------------------
 Trust Radius=3.00D-01 FncErr=1.00D-07 GrdErr=1.00D-07 EigMax=2.50D+02 EigMin=1.00D-04
 Number of steps in this run=    120 maximum allowed number of steps=    144.
 GradGradGradGradGradGradGradGradGradGradGradGradGradGradGradGradGradGrad

                          Input orientation:                          
 ---------------------------------------------------------------------
 Center     Atomic      Atomic             Coordinates (Angstroms)
 Number     Number       Type             X           Y           Z
 ---------------------------------------------------------------------
      1          6           0       -0.021495    0.382884   -0.270487
      2          6           0        1.283745    0.888860   -0.205232
      3          6           0        1.496818    2.241465    0.093069
      4          6           0        0.404650    3.088093    0.326115
      5          6           0       -0.900591    2.582118    0.260859
      6          6           0       -1.113663    1.229513   -0.037442
      7          1           0       -0.184180   -0.649859   -0.498245
      8          1           0        2.117640    0.242439   -0.383164
      9          1           0        0.567335    4.120836    0.553877
     10          1           0       -1.734486    3.228538    0.438793
     11          6           0        2.931148    2.797481    0.164782
     12          8           0        3.122478    4.012064    0.432644
     13          8           0        4.045605    1.933573   -0.073017
     14          6           0       -2.547993    0.673497   -0.109154
     15          8           0       -3.528716    1.433735    0.100111
     16          8           0       -2.765414   -0.706711   -0.413546
     17          1           0       -3.604927   -0.805662   -0.868548
     18          6           0        5.172274    2.390818    0.679608
     19          6           0        6.372459    1.460456    0.423518
     20          1           0        4.931477    2.383600    1.722136
     21          1           0        5.422208    3.386592    0.378166
     22          1           0        7.215491    1.802591    0.986671
     23          1           0        6.122525    0.464682    0.724960
     24          1           0        6.613256    1.467675   -0.619010
 ---------------------------------------------------------------------
                    Distance matrix (angstroms):
                    1          2          3          4          5
     1  C    0.000000
     2  C    1.401400   0.000000
     3  C    2.427296   1.401400   0.000000
     4  C    2.802800   2.427296   1.401400   0.000000
     5  C    2.427296   2.802800   2.427296   1.401400   0.000000
     6  C    1.401400   2.427296   2.802800   2.427296   1.401400
     7  H    1.070000   2.146700   3.396345   3.872800   3.396345
     8  H    2.146700   1.070000   2.146700   3.396345   3.872800
     9  H    3.872800   3.396345   2.146700   1.070000   2.146700
    10  H    3.396345   3.872800   3.396345   2.146700   1.070000
    11  C    3.838989   2.548270   1.540000   2.548270   3.838989
    12  O    4.852825   3.679977   2.427572   2.872571   4.273095
    13  O    4.357170   2.955804   2.572683   3.840414   4.999694
    14  C    2.548270   3.838989   4.342800   3.838989   2.548270
    15  O    3.679977   4.852825   5.090036   4.273095   2.872571
    16  O    2.955804   4.357170   5.207208   4.999694   3.840414
    17  H    3.822474   5.216370   6.019758   5.715353   4.479514
    18  C    5.648869   4.261394   3.724958   4.831293   6.090290
    19  C    6.521154   5.159172   4.948843   6.186553   7.360831
    20  H    5.701345   4.388045   3.804070   4.789296   6.015626
    21  H    6.251153   4.868870   4.098938   5.026699   6.374851
    22  H    7.481308   6.118916   5.804684   6.962500   8.185673
    23  H    6.224675   4.945601   4.995338   6.303607   7.350039
    24  H    6.731876   5.376795   5.223385   6.485816   7.646832
                    6          7          8          9         10
     6  C    0.000000
     7  H    2.146700   0.000000
     8  H    3.396345   2.471400   0.000000
     9  H    3.396345   4.942800   4.280590   0.000000
    10  H    2.146700   4.280590   4.942800   2.471400   0.000000
    11  C    4.342800   4.693509   2.736837   2.736837   4.693509
    12  O    5.090036   5.790861   3.985638   2.560329   4.919761
    13  O    5.207208   4.974538   2.583249   4.156378   5.945446
    14  C    1.540000   2.736837   4.693509   4.693509   2.736837
    15  O    2.427572   3.985638   5.790861   4.919761   2.560329
    16  O    2.572683   2.583249   4.974538   5.945446   4.156378
    17  H    3.322510   3.444257   5.837970   6.610707   4.634918
    18  C    6.432402   6.270938   3.882757   4.920796   6.961544
    19  C    7.503855   6.949287   4.498642   6.387024   8.297523
    20  H    6.400918   6.348379   4.115159   4.840305   6.840756
    21  H    6.895167   6.963665   4.624445   4.913225   7.158695
    22  H    8.411422   7.935655   5.504416   7.054045   9.079404
    23  H    7.316327   6.520196   4.161301   6.652583   8.333871
    24  H    7.752433   7.120651   4.665553   6.705825   8.596765
                   11         12         13         14         15
    11  C    0.000000
    12  O    1.258400   0.000000
    13  O    1.430000   2.329803   0.000000
    14  C    5.882800   6.602562   6.713020   0.000000
    15  O    6.602562   7.141200   7.592770   1.258400   0.000000
    16  O    6.713020   7.592770   7.312800   1.430000   2.329803
    17  H    7.534632   8.376250   8.164982   1.970203   2.441108
    18  C    2.335180   2.625089   1.430000   7.948199   8.772631
    19  C    3.700973   4.131968   2.425826   8.970926   9.906491
    20  H    2.568651   2.754481   2.051796   7.888000   8.666491
    21  H    2.568651   2.383892   2.051796   8.433414   9.165697
    22  H    4.474472   4.684172   3.344887   9.889454  10.787030
    23  H    3.992572   4.655067   2.666083   8.713050   9.719873
    24  H    3.992572   4.445832   2.666083   9.209732  10.167491
                   16         17         18         19         20
    16  O    0.000000
    17  H    0.960000   0.000000
    18  C    8.590493   9.468555   0.000000
    19  C    9.428574  10.312757   1.540000   0.000000
    20  H    8.564654   9.473818   1.070000   2.148263   0.000000
    21  H    9.187987  10.030875   1.070000   2.148263   1.747303
    22  H   10.386321  11.283894   2.148263   1.070000   2.468846
    23  H    9.036803   9.938630   2.148263   1.070000   2.468846
    24  H    9.629622  10.470988   2.148263   1.070000   3.024610
                   21         22         23         24
    21  H    0.000000
    22  H    2.468846   0.000000
    23  H    3.024610   1.747303   0.000000
    24  H    2.468846   1.747303   1.747303   0.000000
 Stoichiometry    C10H10O4
 Framework group  C1[X(C10H10O4)]
 Deg. of freedom    66
 Full point group                 C1      NOp   1
 Largest Abelian subgroup         C1      NOp   1
 Largest concise Abelian subgroup C1      NOp   1
                         Standard orientation:                         
 ---------------------------------------------------------------------
 Center     Atomic      Atomic             Coordinates (Angstroms)
 Number     Number       Type             X           Y           Z
 ---------------------------------------------------------------------
      1          6           0       -1.405080   -1.103511   -0.103739
      2          6           0       -0.021782   -0.888563   -0.168605
      3          6           0        0.487953    0.415725   -0.114514
      4          6           0       -0.385609    1.505064    0.004445
      5          6           0       -1.768906    1.290116    0.069311
      6          6           0       -2.278642   -0.014172    0.015220
      7          1           0       -1.794274   -2.099364   -0.145038
      8          1           0        0.645202   -1.720298   -0.259429
      9          1           0        0.003585    2.500916    0.045748
     10          1           0       -2.435890    2.121851    0.160137
     11          6           0        2.008060    0.651931   -0.185791
     12          8           0        2.465782    1.823128   -0.137219
     13          8           0        2.899450   -0.459640   -0.307174
     14          6           0       -3.798749   -0.250378    0.086498
     15          8           0       -4.583172    0.727804    0.193317
     16          8           0       -4.318887   -1.581284    0.031299
     17          1           0       -5.189684   -1.568037   -0.372604
     18          6           0        4.145316   -0.142135    0.318853
     19          6           0        5.105274   -1.339211    0.188133
     20          1           0        3.980063    0.071118    1.354283
     21          1           0        4.575805    0.713921   -0.157326
     22          1           0        6.037495   -1.101637    0.656559
     23          1           0        4.674784   -2.195268    0.664312
     24          1           0        5.270527   -1.552464   -0.847297
 ---------------------------------------------------------------------
 Rotational constants (GHZ):           2.0679420           0.2655336           0.2372939
 Standard basis: VSTO-6G (5D, 7F)
 There are    66 symmetry adapted cartesian basis functions of A   symmetry.
 There are    66 symmetry adapted basis functions of A   symmetry.
    66 basis functions,   396 primitive gaussians,    66 cartesian basis functions
    37 alpha electrons       37 beta electrons
       nuclear repulsion energy       476.1166081389 Hartrees.
 Integral buffers will be    131072 words long.
 Regular integral format.
 Two-electron integral symmetry is turned off.
 Do NDO integrals.
 One-electron integrals computed using PRISM.
 NBasis=    66 RedAO= F EigKep=  0.00D+00  NBF=    66
 NBsUse=    66 1.00D-04 EigRej=  0.00D+00 NBFU=    66
 Simple Huckel Guess.
 Keep J ints in memory in canonical form, NReq=871062.
 Overlap will be assumed to be unity.
 Requested convergence on RMS density matrix=1.00D-08 within 128 cycles.
 Requested convergence on MAX density matrix=1.00D-06.
 Requested convergence on             energy=1.00D-06.
 No special actions if energy rises.
 SCF Done:  E(RPM6) = -0.205680544134     A.U. after   18 cycles
            NFock= 17  Conv=0.67D-08     -V/T= 0.9986

 **********************************************************************

            Population analysis using the SCF density.

 **********************************************************************

 Orbital symmetries:
       Occupied  (A) (A) (A) (A) (A) (A) (A) (A) (A) (A) (A) (A)
                 (A) (A) (A) (A) (A) (A) (A) (A) (A) (A) (A) (A)
                 (A) (A) (A) (A) (A) (A) (A) (A) (A) (A) (A) (A)
                 (A)
       Virtual   (A) (A) (A) (A) (A) (A) (A) (A) (A) (A) (A) (A)
                 (A) (A) (A) (A) (A) (A) (A) (A) (A) (A) (A) (A)
                 (A) (A) (A) (A) (A)
 The electronic state is 1-A.
 Alpha  occ. eigenvalues --   -1.16420  -1.16052  -1.13720  -1.12418  -1.11974
 Alpha  occ. eigenvalues --   -1.02881  -1.00453  -0.99294  -0.89718  -0.84065
 Alpha  occ. eigenvalues --   -0.82065  -0.80207  -0.76838  -0.69615  -0.66942
 Alpha  occ. eigenvalues --   -0.64603  -0.63009  -0.61546  -0.59640  -0.58988
 Alpha  occ. eigenvalues --   -0.57909  -0.56265  -0.55843  -0.54079  -0.53127
 Alpha  occ. eigenvalues --   -0.51867  -0.50600  -0.49689  -0.48672  -0.47996
 Alpha  occ. eigenvalues --   -0.47212  -0.45491  -0.41964  -0.41654  -0.40746
 Alpha  occ. eigenvalues --   -0.39750  -0.38995
 Alpha virt. eigenvalues --   -0.05783  -0.02200  -0.00636   0.01714   0.02462
 Alpha virt. eigenvalues --    0.02692   0.06360   0.08855   0.09735   0.10729
 Alpha virt. eigenvalues --    0.11871   0.12483   0.13031   0.14140   0.14475
 Alpha virt. eigenvalues --    0.14650   0.14951   0.15856   0.17060   0.17502
 Alpha virt. eigenvalues --    0.18769   0.19077   0.19977   0.20022   0.20434
 Alpha virt. eigenvalues --    0.20590   0.20634   0.20934   0.23891
          Condensed to atoms (all electrons):
               1          2          3          4          5          6
     1  C    4.107073   0.000000   0.000000   0.000000   0.000000   0.000000
     2  C    0.000000   4.112139   0.000000   0.000000   0.000000   0.000000
     3  C    0.000000   0.000000   4.090789   0.000000   0.000000   0.000000
     4  C    0.000000   0.000000   0.000000   4.098080   0.000000   0.000000
     5  C    0.000000   0.000000   0.000000   0.000000   4.094452   0.000000
     6  C    0.000000   0.000000   0.000000   0.000000   0.000000   4.096087
     7  H    0.000000   0.000000   0.000000   0.000000   0.000000   0.000000
     8  H    0.000000   0.000000   0.000000   0.000000   0.000000   0.000000
     9  H    0.000000   0.000000   0.000000   0.000000   0.000000   0.000000
    10  H    0.000000   0.000000   0.000000   0.000000   0.000000   0.000000
    11  C    0.000000   0.000000   0.000000   0.000000   0.000000   0.000000
    12  O    0.000000   0.000000   0.000000   0.000000   0.000000   0.000000
    13  O    0.000000   0.000000   0.000000   0.000000   0.000000   0.000000
    14  C    0.000000   0.000000   0.000000   0.000000   0.000000   0.000000
    15  O    0.000000   0.000000   0.000000   0.000000   0.000000   0.000000
    16  O    0.000000   0.000000   0.000000   0.000000   0.000000   0.000000
    17  H    0.000000   0.000000   0.000000   0.000000   0.000000   0.000000
    18  C    0.000000   0.000000   0.000000   0.000000   0.000000   0.000000
    19  C    0.000000   0.000000   0.000000   0.000000   0.000000   0.000000
    20  H    0.000000   0.000000   0.000000   0.000000   0.000000   0.000000
    21  H    0.000000   0.000000   0.000000   0.000000   0.000000   0.000000
    22  H    0.000000   0.000000   0.000000   0.000000   0.000000   0.000000
    23  H    0.000000   0.000000   0.000000   0.000000   0.000000   0.000000
    24  H    0.000000   0.000000   0.000000   0.000000   0.000000   0.000000
               7          8          9         10         11         12
     1  C    0.000000   0.000000   0.000000   0.000000   0.000000   0.000000
     2  C    0.000000   0.000000   0.000000   0.000000   0.000000   0.000000
     3  C    0.000000   0.000000   0.000000   0.000000   0.000000   0.000000
     4  C    0.000000   0.000000   0.000000   0.000000   0.000000   0.000000
     5  C    0.000000   0.000000   0.000000   0.000000   0.000000   0.000000
     6  C    0.000000   0.000000   0.000000   0.000000   0.000000   0.000000
     7  H    0.829255   0.000000   0.000000   0.000000   0.000000   0.000000
     8  H    0.000000   0.828692   0.000000   0.000000   0.000000   0.000000
     9  H    0.000000   0.000000   0.821702   0.000000   0.000000   0.000000
    10  H    0.000000   0.000000   0.000000   0.822587   0.000000   0.000000
    11  C    0.000000   0.000000   0.000000   0.000000   3.398794   0.000000
    12  O    0.000000   0.000000   0.000000   0.000000   0.000000   6.504702
    13  O    0.000000   0.000000   0.000000   0.000000   0.000000   0.000000
    14  C    0.000000   0.000000   0.000000   0.000000   0.000000   0.000000
    15  O    0.000000   0.000000   0.000000   0.000000   0.000000   0.000000
    16  O    0.000000   0.000000   0.000000   0.000000   0.000000   0.000000
    17  H    0.000000   0.000000   0.000000   0.000000   0.000000   0.000000
    18  C    0.000000   0.000000   0.000000   0.000000   0.000000   0.000000
    19  C    0.000000   0.000000   0.000000   0.000000   0.000000   0.000000
    20  H    0.000000   0.000000   0.000000   0.000000   0.000000   0.000000
    21  H    0.000000   0.000000   0.000000   0.000000   0.000000   0.000000
    22  H    0.000000   0.000000   0.000000   0.000000   0.000000   0.000000
    23  H    0.000000   0.000000   0.000000   0.000000   0.000000   0.000000
    24  H    0.000000   0.000000   0.000000   0.000000   0.000000   0.000000
              13         14         15         16         17         18
     1  C    0.000000   0.000000   0.000000   0.000000   0.000000   0.000000
     2  C    0.000000   0.000000   0.000000   0.000000   0.000000   0.000000
     3  C    0.000000   0.000000   0.000000   0.000000   0.000000   0.000000
     4  C    0.000000   0.000000   0.000000   0.000000   0.000000   0.000000
     5  C    0.000000   0.000000   0.000000   0.000000   0.000000   0.000000
     6  C    0.000000   0.000000   0.000000   0.000000   0.000000   0.000000
     7  H    0.000000   0.000000   0.000000   0.000000   0.000000   0.000000
     8  H    0.000000   0.000000   0.000000   0.000000   0.000000   0.000000
     9  H    0.000000   0.000000   0.000000   0.000000   0.000000   0.000000
    10  H    0.000000   0.000000   0.000000   0.000000   0.000000   0.000000
    11  C    0.000000   0.000000   0.000000   0.000000   0.000000   0.000000
    12  O    0.000000   0.000000   0.000000   0.000000   0.000000   0.000000
    13  O    6.425983   0.000000   0.000000   0.000000   0.000000   0.000000
    14  C    0.000000   3.385353   0.000000   0.000000   0.000000   0.000000
    15  O    0.000000   0.000000   6.493089   0.000000   0.000000   0.000000
    16  O    0.000000   0.000000   0.000000   6.515242   0.000000   0.000000
    17  H    0.000000   0.000000   0.000000   0.000000   0.664973   0.000000
    18  C    0.000000   0.000000   0.000000   0.000000   0.000000   3.983394
    19  C    0.000000   0.000000   0.000000   0.000000   0.000000   0.000000
    20  H    0.000000   0.000000   0.000000   0.000000   0.000000   0.000000
    21  H    0.000000   0.000000   0.000000   0.000000   0.000000   0.000000
    22  H    0.000000   0.000000   0.000000   0.000000   0.000000   0.000000
    23  H    0.000000   0.000000   0.000000   0.000000   0.000000   0.000000
    24  H    0.000000   0.000000   0.000000   0.000000   0.000000   0.000000
              19         20         21         22         23         24
     1  C    0.000000   0.000000   0.000000   0.000000   0.000000   0.000000
     2  C    0.000000   0.000000   0.000000   0.000000   0.000000   0.000000
     3  C    0.000000   0.000000   0.000000   0.000000   0.000000   0.000000
     4  C    0.000000   0.000000   0.000000   0.000000   0.000000   0.000000
     5  C    0.000000   0.000000   0.000000   0.000000   0.000000   0.000000
     6  C    0.000000   0.000000   0.000000   0.000000   0.000000   0.000000
     7  H    0.000000   0.000000   0.000000   0.000000   0.000000   0.000000
     8  H    0.000000   0.000000   0.000000   0.000000   0.000000   0.000000
     9  H    0.000000   0.000000   0.000000   0.000000   0.000000   0.000000
    10  H    0.000000   0.000000   0.000000   0.000000   0.000000   0.000000
    11  C    0.000000   0.000000   0.000000   0.000000   0.000000   0.000000
    12  O    0.000000   0.000000   0.000000   0.000000   0.000000   0.000000
    13  O    0.000000   0.000000   0.000000   0.000000   0.000000   0.000000
    14  C    0.000000   0.000000   0.000000   0.000000   0.000000   0.000000
    15  O    0.000000   0.000000   0.000000   0.000000   0.000000   0.000000
    16  O    0.000000   0.000000   0.000000   0.000000   0.000000   0.000000
    17  H    0.000000   0.000000   0.000000   0.000000   0.000000   0.000000
    18  C    0.000000   0.000000   0.000000   0.000000   0.000000   0.000000
    19  C    4.484467   0.000000   0.000000   0.000000   0.000000   0.000000
    20  H    0.000000   0.879401   0.000000   0.000000   0.000000   0.000000
    21  H    0.000000   0.000000   0.861033   0.000000   0.000000   0.000000
    22  H    0.000000   0.000000   0.000000   0.836703   0.000000   0.000000
    23  H    0.000000   0.000000   0.000000   0.000000   0.834752   0.000000
    24  H    0.000000   0.000000   0.000000   0.000000   0.000000   0.831260
 Mulliken charges:
               1
     1  C   -0.107073
     2  C   -0.112139
     3  C   -0.090789
     4  C   -0.098080
     5  C   -0.094452
     6  C   -0.096087
     7  H    0.170745
     8  H    0.171308
     9  H    0.178298
    10  H    0.177413
    11  C    0.601206
    12  O   -0.504702
    13  O   -0.425983
    14  C    0.614647
    15  O   -0.493089
    16  O   -0.515242
    17  H    0.335027
    18  C    0.016606
    19  C   -0.484467
    20  H    0.120599
    21  H    0.138967
    22  H    0.163297
    23  H    0.165248
    24  H    0.168740
 Sum of Mulliken charges =  -0.00000
 Mulliken charges with hydrogens summed into heavy atoms:
               1
     1  C    0.063672
     2  C    0.059169
     3  C   -0.090789
     4  C    0.080218
     5  C    0.082961
     6  C   -0.096087
    11  C    0.601206
    12  O   -0.504702
    13  O   -0.425983
    14  C    0.614647
    15  O   -0.493089
    16  O   -0.180215
    18  C    0.276172
    19  C    0.012819
 Charge=             -0.0000 electrons
 Dipole moment (field-independent basis, Debye):
    X=              1.3996    Y=             -2.6948    Z=             -0.0615  Tot=              3.0372
 N-N= 4.761166081389D+02 E-N=-7.496187324736D+02  KE=-1.519796571324D+02
 Calling FoFJK, ICntrl=      2127 FMM=F ISym2X=0 I1Cent= 0 IOpClX= 0 NMat=1 NMatS=1 NMatT=0.
 ***** Axes restored to original set *****
 -------------------------------------------------------------------
 Center     Atomic                   Forces (Hartrees/Bohr)
 Number     Number              X              Y              Z
 -------------------------------------------------------------------
      1        6           0.002321803    0.009878886    0.002172057
      2        6          -0.008760061    0.005912012    0.001653872
      3        6           0.034005814   -0.002709499   -0.005159615
      4        6           0.001013651   -0.010267311   -0.002626628
      5        6           0.005947967   -0.008087502   -0.001760976
      6        6          -0.022989019   -0.027139187   -0.002319142
      7        1          -0.002278320   -0.011896329   -0.002492317
      8        1           0.009890840   -0.007124148   -0.002058934
      9        1           0.002712667    0.012781313    0.002684689
     10        1          -0.010748947    0.007537889    0.002212015
     11        6          -0.008167664    0.050118991    0.007003426
     12        8          -0.004507926   -0.071913656   -0.013878273
     13        8          -0.055060363    0.010677121    0.002064746
     14        6          -0.032008200    0.040975918    0.011449303
     15        8           0.052977237   -0.055684965   -0.017082291
     16        8           0.028705249    0.050317850    0.009976319
     17        1          -0.016092141   -0.003743811   -0.001355623
     18        6           0.035940321   -0.006812190    0.003113844
     19        6          -0.025503968    0.010716218   -0.000549893
     20        1          -0.007506389    0.000177265    0.018732718
     21        1           0.002837547    0.021092864   -0.006437712
     22        1           0.012037917    0.003187241    0.006598724
     23        1          -0.000337428   -0.015198293    0.002297138
     24        1           0.005569414   -0.002796674   -0.014237447
 -------------------------------------------------------------------
 Cartesian Forces:  Max     0.071913656 RMS     0.020809596

 GradGradGradGradGradGradGradGradGradGradGradGradGradGradGradGradGradGrad
 Berny optimization.
 FormGI is forming the generalized inverse of G from B-inverse, IUseBI=4.
 Internal  Forces:  Max     0.077769019 RMS     0.015207147
 Search for a local minimum.
 Step number   1 out of a maximum of  120
 All quantities printed in internal units (Hartrees-Bohrs-Radians)
 Mixed Optimization -- RFO/linear search
 Second derivative matrix not updated -- first step.
 ITU=  0
     Eigenvalues ---    0.00237   0.00237   0.00237   0.00590   0.00590
     Eigenvalues ---    0.01295   0.01295   0.01295   0.01459   0.01557
     Eigenvalues ---    0.02070   0.02070   0.02070   0.02070   0.02070
     Eigenvalues ---    0.02070   0.02070   0.05139   0.05720   0.05720
     Eigenvalues ---    0.05816   0.11239   0.13704   0.16000   0.16000
     Eigenvalues ---    0.16000   0.16000   0.16000   0.16000   0.16000
     Eigenvalues ---    0.16000   0.22000   0.22071   0.22981   0.24000
     Eigenvalues ---    0.25000   0.25000   0.25000   0.25000   0.25000
     Eigenvalues ---    0.25000   0.25000   0.28519   0.28519   0.28519
     Eigenvalues ---    0.37230   0.37230   0.37230   0.37230   0.37230
     Eigenvalues ---    0.37230   0.37230   0.37230   0.37230   0.40989
     Eigenvalues ---    0.40989   0.40989   0.41268   0.41640   0.45389
     Eigenvalues ---    0.45389   0.45389   0.45389   0.55473   0.80209
     Eigenvalues ---    0.80209
 RFO step:  Lambda=-5.27325899D-02 EMin= 2.36824203D-03
 Linear search not attempted -- first point.
 Maximum step size (   0.300) exceeded in Quadratic search.
    -- Step size scaled by   0.868
 Iteration  1 RMS(Cart)=  0.12905419 RMS(Int)=  0.00489824
 Iteration  2 RMS(Cart)=  0.01316509 RMS(Int)=  0.00011309
 Iteration  3 RMS(Cart)=  0.00006989 RMS(Int)=  0.00010900
 Iteration  4 RMS(Cart)=  0.00000001 RMS(Int)=  0.00010900
 Variable       Old X    -DE/DX   Delta X   Delta X   Delta X     New X
                                 (Linear)    (Quad)   (Total)
    R1        2.64826  -0.00347   0.00000  -0.00588  -0.00588   2.64239
    R2        2.64826  -0.00051   0.00000  -0.00083  -0.00083   2.64743
    R3        2.02201   0.01236   0.00000   0.02524   0.02524   2.04725
    R4        2.64826  -0.00057   0.00000  -0.00095  -0.00095   2.64731
    R5        2.02201   0.01235   0.00000   0.02524   0.02524   2.04724
    R6        2.64826  -0.00267   0.00000  -0.00462  -0.00462   2.64364
    R7        2.91018  -0.04168   0.00000  -0.10709  -0.10709   2.80309
    R8        2.64826  -0.00278   0.00000  -0.00483  -0.00484   2.64343
    R9        2.02201   0.01332   0.00000   0.02721   0.02721   2.04921
   R10        2.64826  -0.00265   0.00000  -0.00457  -0.00457   2.64369
   R11        2.02201   0.01330   0.00000   0.02716   0.02716   2.04917
   R12        2.91018  -0.04292   0.00000  -0.11027  -0.11027   2.79991
   R13        2.37803  -0.07305   0.00000  -0.07419  -0.07419   2.30384
   R14        2.70231  -0.03960   0.00000  -0.07431  -0.07431   2.62800
   R15        2.70231   0.02647   0.00000   0.04968   0.04968   2.75199
   R16        2.37803  -0.07777   0.00000  -0.07898  -0.07898   2.29905
   R17        2.70231  -0.04871   0.00000  -0.09140  -0.09140   2.61091
   R18        1.81414   0.01510   0.00000   0.02158   0.02158   1.83572
   R19        2.91018  -0.00297   0.00000  -0.00762  -0.00762   2.90256
   R20        2.02201   0.01994   0.00000   0.04073   0.04073   2.06274
   R21        2.02201   0.02211   0.00000   0.04515   0.04515   2.06716
   R22        2.02201   0.01398   0.00000   0.02855   0.02855   2.05056
   R23        2.02201   0.01487   0.00000   0.03037   0.03037   2.05238
   R24        2.02201   0.01511   0.00000   0.03086   0.03086   2.05286
    A1        2.09440  -0.00370   0.00000  -0.01080  -0.01079   2.08360
    A2        2.09440   0.00226   0.00000   0.00708   0.00708   2.10148
    A3        2.09440   0.00144   0.00000   0.00371   0.00371   2.09811
    A4        2.09440  -0.00352   0.00000  -0.01028  -0.01027   2.08412
    A5        2.09440   0.00219   0.00000   0.00689   0.00688   2.10128
    A6        2.09440   0.00133   0.00000   0.00339   0.00339   2.09778
    A7        2.09440   0.00682   0.00000   0.02021   0.02021   2.11460
    A8        2.09440   0.00011   0.00000  -0.00001  -0.00001   2.09438
    A9        2.09440  -0.00693   0.00000  -0.02020  -0.02020   2.07420
   A10        2.09440  -0.00318   0.00000  -0.00958  -0.00959   2.08480
   A11        2.09440   0.00088   0.00000   0.00190   0.00191   2.09630
   A12        2.09440   0.00230   0.00000   0.00768   0.00768   2.10208
   A13        2.09440  -0.00342   0.00000  -0.01034  -0.01034   2.08405
   A14        2.09440   0.00234   0.00000   0.00773   0.00773   2.10213
   A15        2.09440   0.00108   0.00000   0.00261   0.00261   2.09701
   A16        2.09440   0.00700   0.00000   0.02079   0.02079   2.11519
   A17        2.09440   0.00015   0.00000   0.00006   0.00006   2.09446
   A18        2.09440  -0.00715   0.00000  -0.02085  -0.02086   2.07354
   A19        2.09440   0.01893   0.00000   0.05428   0.05426   2.14865
   A20        2.09440  -0.02216   0.00000  -0.06356  -0.06358   2.03081
   A21        2.09440   0.00323   0.00000   0.00928   0.00925   2.10365
   A22        1.91063   0.02507   0.00000   0.07190   0.07190   1.98253
   A23        2.09440   0.02397   0.00000   0.06874   0.06873   2.16312
   A24        2.09440  -0.01926   0.00000  -0.05524  -0.05525   2.03914
   A25        2.09440  -0.00471   0.00000  -0.01349  -0.01350   2.08089
   A26        1.91063   0.00253   0.00000   0.01033   0.01033   1.92096
   A27        1.91063  -0.01728   0.00000  -0.05779  -0.05767   1.85297
   A28        1.91063   0.00319   0.00000   0.00161   0.00184   1.91248
   A29        1.91063   0.00408   0.00000   0.00712   0.00737   1.91800
   A30        1.91063   0.00644   0.00000   0.02440   0.02399   1.93463
   A31        1.91063   0.00595   0.00000   0.02311   0.02279   1.93342
   A32        1.91063  -0.00236   0.00000   0.00155   0.00098   1.91161
   A33        1.91063   0.00112   0.00000   0.00477   0.00472   1.91536
   A34        1.91063   0.00430   0.00000   0.01763   0.01753   1.92816
   A35        1.91063   0.00384   0.00000   0.01542   0.01533   1.92596
   A36        1.91063  -0.00253   0.00000  -0.00980  -0.00986   1.90077
   A37        1.91063  -0.00252   0.00000  -0.01041  -0.01045   1.90019
   A38        1.91063  -0.00421   0.00000  -0.01761  -0.01774   1.89289
    D1       -0.00000   0.00001   0.00000   0.00011   0.00009   0.00009
    D2        3.14159  -0.00002   0.00000  -0.00022  -0.00023   3.14136
    D3       -3.14159   0.00001   0.00000   0.00013   0.00013  -3.14147
    D4       -0.00000  -0.00001   0.00000  -0.00019  -0.00020  -0.00020
    D5        0.00000  -0.00004   0.00000  -0.00049  -0.00048  -0.00048
    D6        3.14159  -0.00015   0.00000  -0.00185  -0.00186   3.13973
    D7        3.14159  -0.00005   0.00000  -0.00051  -0.00052   3.14108
    D8       -0.00000  -0.00015   0.00000  -0.00188  -0.00189  -0.00190
    D9        0.00000  -0.00003   0.00000  -0.00033  -0.00032  -0.00032
   D10        3.14159  -0.00018   0.00000  -0.00217  -0.00218   3.13941
   D11       -3.14159  -0.00000   0.00000  -0.00000  -0.00000  -3.14159
   D12        0.00000  -0.00015   0.00000  -0.00185  -0.00186  -0.00186
   D13       -0.00000   0.00008   0.00000   0.00093   0.00093   0.00093
   D14        3.14159   0.00001   0.00000   0.00010   0.00011  -3.14149
   D15       -3.14159   0.00023   0.00000   0.00277   0.00277  -3.13882
   D16        0.00000   0.00016   0.00000   0.00194   0.00195   0.00195
   D17       -3.14159  -0.00031   0.00000  -0.00466  -0.00473   3.13686
   D18        0.00000   0.00055   0.00000   0.00808   0.00812   0.00812
   D19       -0.00000  -0.00045   0.00000  -0.00650  -0.00654  -0.00655
   D20        3.14159   0.00041   0.00000   0.00624   0.00631  -3.13529
   D21        0.00000  -0.00011   0.00000  -0.00131  -0.00130  -0.00129
   D22       -3.14159  -0.00004   0.00000  -0.00047  -0.00046   3.14113
   D23       -3.14159  -0.00004   0.00000  -0.00048  -0.00047   3.14112
   D24        0.00000   0.00003   0.00000   0.00035   0.00036   0.00036
   D25       -0.00000   0.00010   0.00000   0.00109   0.00109   0.00109
   D26       -3.14159   0.00020   0.00000   0.00245   0.00245  -3.13914
   D27        3.14159   0.00002   0.00000   0.00025   0.00026  -3.14133
   D28        0.00000   0.00013   0.00000   0.00162   0.00162   0.00162
   D29       -3.14159  -0.00020   0.00000  -0.00307  -0.00314   3.13845
   D30        0.00000   0.00033   0.00000   0.00481   0.00486   0.00486
   D31       -0.00000  -0.00031   0.00000  -0.00443  -0.00448  -0.00449
   D32        3.14159   0.00022   0.00000   0.00344   0.00352  -3.13808
   D33       -2.61799  -0.00611   0.00000  -0.08150  -0.08138  -2.69938
   D34        0.52360  -0.00525   0.00000  -0.06877  -0.06889   0.45471
   D35        3.14159   0.00015   0.00000   0.00109   0.00117  -3.14042
   D36        1.04720   0.00089   0.00000   0.00561   0.00539   1.05259
   D37       -1.04720  -0.00066   0.00000  -0.00164  -0.00150  -1.04870
   D38       -2.61799  -0.00599   0.00000  -0.07962  -0.07949  -2.69748
   D39        0.52360  -0.00546   0.00000  -0.07174  -0.07188   0.45172
   D40        3.14159   0.00017   0.00000   0.00126   0.00127  -3.14033
   D41       -1.04720   0.00039   0.00000   0.00298   0.00296  -1.04423
   D42        1.04720   0.00022   0.00000   0.00164   0.00168   1.04887
   D43       -1.04720  -0.00256   0.00000  -0.01721  -0.01746  -1.06466
   D44        1.04720  -0.00235   0.00000  -0.01550  -0.01576   1.03143
   D45        3.14159  -0.00252   0.00000  -0.01683  -0.01705   3.12454
   D46        1.04720   0.00212   0.00000   0.01379   0.01402   1.06122
   D47        3.14159   0.00234   0.00000   0.01550   0.01572  -3.12587
   D48       -1.04720   0.00217   0.00000   0.01417   0.01443  -1.03277
         Item               Value     Threshold  Converged?
 Maximum Force            0.077769     0.000450     NO 
 RMS     Force            0.015207     0.000300     NO 
 Maximum Displacement     0.513729     0.001800     NO 
 RMS     Displacement     0.138643     0.001200     NO 
 Predicted change in Energy=-2.892772D-02
 GradGradGradGradGradGradGradGradGradGradGradGradGradGradGradGradGradGrad

                          Input orientation:                          
 ---------------------------------------------------------------------
 Center     Atomic      Atomic             Coordinates (Angstroms)
 Number     Number       Type             X           Y           Z
 ---------------------------------------------------------------------
      1          6           0        0.051170    0.400731   -0.242820
      2          6           0        1.338858    0.937221   -0.146620
      3          6           0        1.497038    2.298541    0.143716
      4          6           0        0.389396    3.130524    0.338669
      5          6           0       -0.898975    2.594102    0.243248
      6          6           0       -1.057325    1.234779   -0.047131
      7          1           0       -0.089812   -0.649871   -0.466485
      8          1           0        2.207625    0.307161   -0.294692
      9          1           0        0.531533    4.182000    0.562530
     10          1           0       -1.768879    3.224231    0.391812
     11          6           0        2.857078    2.880723    0.251536
     12          8           0        3.060181    4.057552    0.496747
     13          8           0        3.920184    2.009342    0.040612
     14          6           0       -2.427994    0.681308   -0.148197
     15          8           0       -3.439338    1.338517    0.011128
     16          8           0       -2.537028   -0.666399   -0.432291
     17          1           0       -3.389171   -0.848594   -0.861610
     18          6           0        5.152014    2.422921    0.698128
     19          6           0        6.199879    1.353669    0.354796
     20          1           0        4.990813    2.476709    1.776371
     21          1           0        5.461774    3.403586    0.325368
     22          1           0        7.147077    1.605960    0.820223
     23          1           0        5.880142    0.379533    0.713100
     24          1           0        6.341402    1.295034   -0.720677
 ---------------------------------------------------------------------
                    Distance matrix (angstroms):
                    1          2          3          4          5
     1  C    0.000000
     2  C    1.398290   0.000000
     3  C    2.416946   1.400896   0.000000
     4  C    2.811459   2.438763   1.398954   0.000000
     5  C    2.439245   2.811610   2.416225   1.398840   0.000000
     6  C    1.400962   2.416637   2.773587   2.415718   1.398983
     7  H    1.083359   2.159229   3.403465   3.894779   3.417869
     8  H    2.159106   1.083354   2.159336   3.417379   3.894925
     9  H    3.895810   3.418079   2.157550   1.084398   2.160952
    10  H    3.418698   3.895942   3.403626   2.160963   1.084374
    11  C    3.777283   2.498144   1.483331   2.481823   3.766982
    12  O    4.793062   3.621234   2.379530   2.831512   4.228577
    13  O    4.199670   2.801382   2.442520   3.716497   4.858734
    14  C    2.496784   3.775536   4.255177   3.764756   2.479901
    15  O    3.623200   4.797612   5.030610   4.240021   2.843205
    16  O    2.805964   4.204248   5.039478   4.855406   3.710854
    17  H    3.712097   5.104371   5.898320   5.617084   4.390210
    18  C    5.567158   4.178644   3.698878   4.828296   6.070477
    19  C    6.250748   4.904525   4.801464   6.076116   7.207277
    20  H    5.725983   4.405076   3.860540   4.864925   6.087187
    21  H    6.214065   4.827439   4.119861   5.079740   6.412576
    22  H    7.275612   5.925994   5.732388   6.944238   8.127009
    23  H    5.906872   4.655469   4.818546   6.152758   7.147133
    24  H    6.371432   5.048071   5.022157   6.318039   7.418881
                    6          7          8          9         10
     6  C    0.000000
     7  H    2.159594   0.000000
     8  H    3.403184   2.494722   0.000000
     9  H    3.403273   4.979148   4.307957   0.000000
    10  H    2.157985   4.308667   4.979275   2.497671   0.000000
    11  C    4.256863   4.654547   2.709867   2.682946   4.640814
    12  O    5.021723   5.745441   3.926660   2.532563   4.901557
    13  O    5.038178   4.838246   2.437767   4.059039   5.827928
    14  C    1.481647   2.709324   4.653000   4.638834   2.681884
    15  O    2.384982   3.924427   5.748513   4.915003   2.547797
    16  O    2.439743   2.447511   4.845460   5.823462   4.050457
    17  H    3.231304   3.328872   5.742934   6.535057   4.558983
    18  C    6.365767   6.186689   3.759198   4.945867   6.973858
    19  C    7.269298   6.651984   4.177931   6.338199   8.185444
    20  H    6.437975   6.373277   4.091745   4.926115   6.940406
    21  H    6.880489   6.919367   4.534513   4.996945   7.233183
    22  H    8.258468   7.688755   5.227629   7.104071   9.071749
    23  H    7.031205   6.171826   3.808972   6.564225   8.167194
    24  H    7.429567   6.723673   4.271472   6.613303   8.410476
                   11         12         13         14         15
    11  C    0.000000
    12  O    1.219141   0.000000
    13  O    1.390679   2.267780   0.000000
    14  C    5.738397   6.475727   6.488350   0.000000
    15  O    6.486991   7.062062   7.390090   1.216604   0.000000
    16  O    6.492001   7.382924   7.005627   1.381633   2.242871
    17  H    7.359520   8.216419   7.899903   1.942529   2.355344
    18  C    2.382386   2.662393   1.456291   7.823427   8.686728
    19  C    3.676531   4.145942   2.392829   8.668637   9.645353
    20  H    2.653521   2.804254   2.092257   7.871856   8.687865
    21  H    2.657683   2.494933   2.097976   8.359635   9.142923
    22  H    4.511377   4.776783   3.344152   9.668237  10.620656
    23  H    3.950684   4.639699   2.636276   8.358111   9.394952
    24  H    3.949699   4.458703   2.636682   8.809466   9.808175
                   16         17         18         19         20
    16  O    0.000000
    17  H    0.971420   0.000000
    18  C    8.363200   9.278332   0.000000
    19  C    9.001873   9.913601   1.535968   0.000000
    20  H    8.451373   9.393653   1.091553   2.178058   0.000000
    21  H    9.006645   9.890863   1.093894   2.178950   1.785026
    22  H   10.025682  10.948330   2.159308   1.085107   2.514339
    23  H    8.558893   9.481992   2.169292   1.086073   2.513881
    24  H    9.097082   9.964891   2.167898   1.086328   3.075012
                   21         22         23         24
    21  H    0.000000
    22  H    2.513282   0.000000
    23  H    3.077379   1.766557   0.000000
    24  H    2.512756   1.766397   1.762561   0.000000
 Stoichiometry    C10H10O4
 Framework group  C1[X(C10H10O4)]
 Deg. of freedom    66
 Full point group                 C1      NOp   1
 Largest Abelian subgroup         C1      NOp   1
 Largest concise Abelian subgroup C1      NOp   1
                         Standard orientation:                         
 ---------------------------------------------------------------------
 Center     Atomic      Atomic             Coordinates (Angstroms)
 Number     Number       Type             X           Y           Z
 ---------------------------------------------------------------------
      1          6           0       -1.351143   -1.100876   -0.077532
      2          6           0        0.025021   -0.858228   -0.127640
      3          6           0        0.492801    0.461626   -0.086697
      4          6           0       -0.392695    1.540939    0.003045
      5          6           0       -1.769450    1.298635    0.053935
      6          6           0       -2.236972   -0.019268    0.012605
      7          1           0       -1.730534   -2.115174   -0.107989
      8          1           0        0.724738   -1.682371   -0.197210
      9          1           0       -0.011979    2.555850    0.033495
     10          1           0       -2.470223    2.123179    0.124021
     11          6           0        1.950095    0.733857   -0.136231
     12          8           0        2.418655    1.859034   -0.109137
     13          8           0        2.782560   -0.375927   -0.233027
     14          6           0       -3.697951   -0.260433    0.064174
     15          8           0       -4.529828    0.623571    0.145681
     16          8           0       -4.114479   -1.577203    0.025048
     17          1           0       -5.016389   -1.630966   -0.331779
     18          6           0        4.121325   -0.147881    0.292791
     19          6           0        4.886385   -1.465870    0.100996
     20          1           0        4.059037    0.114731    1.350450
     21          1           0        4.604091    0.664701   -0.257893
     22          1           0        5.898645   -1.360189    0.477319
     23          1           0        4.394185   -2.272286    0.636708
     24          1           0        4.928687   -1.728281   -0.952313
 ---------------------------------------------------------------------
 Rotational constants (GHZ):           2.0236540           0.2809736           0.2483747
 Standard basis: VSTO-6G (5D, 7F)
 There are    66 symmetry adapted cartesian basis functions of A   symmetry.
 There are    66 symmetry adapted basis functions of A   symmetry.
    66 basis functions,   396 primitive gaussians,    66 cartesian basis functions
    37 alpha electrons       37 beta electrons
       nuclear repulsion energy       481.2433915841 Hartrees.
 Integral buffers will be    131072 words long.
 Regular integral format.
 Two-electron integral symmetry is turned off.
 Do NDO integrals.
 One-electron integrals computed using PRISM.
 NBasis=    66 RedAO= F EigKep=  0.00D+00  NBF=    66
 NBsUse=    66 1.00D-04 EigRej=  0.00D+00 NBFU=    66
 Initial guess from the checkpoint file:  "pet_pm6.chk"
 B after Tr=    -0.000000   -0.000000    0.000000
         Rot=    0.999991   -0.004024   -0.000267   -0.000941 Ang=  -0.47 deg.
 Keep J ints in memory in canonical form, NReq=871062.
 Overlap will be assumed to be unity.
 Requested convergence on RMS density matrix=1.00D-08 within 128 cycles.
 Requested convergence on MAX density matrix=1.00D-06.
 Requested convergence on             energy=1.00D-06.
 No special actions if energy rises.
 SCF Done:  E(RPM6) = -0.234727469351     A.U. after   17 cycles
            NFock= 16  Conv=0.21D-08     -V/T= 0.9985
 Calling FoFJK, ICntrl=      2127 FMM=F ISym2X=0 I1Cent= 0 IOpClX= 0 NMat=1 NMatS=1 NMatT=0.
 ***** Axes restored to original set *****
 -------------------------------------------------------------------
 Center     Atomic                   Forces (Hartrees/Bohr)
 Number     Number              X              Y              Z
 -------------------------------------------------------------------
      1        6           0.005214587    0.004394927    0.000784995
      2        6          -0.007034087   -0.000513071    0.000093861
      3        6           0.007329427   -0.009909502   -0.005120103
      4        6          -0.003818052   -0.003274849   -0.000791274
      5        6           0.004982750    0.000539242    0.000191265
      6        6           0.001705104   -0.013046776   -0.000054553
      7        1          -0.001247072   -0.005056729   -0.000980161
      8        1           0.004670417   -0.002596694   -0.000690687
      9        1           0.001197590    0.005414730    0.001041250
     10        1          -0.004670387    0.002889803    0.000790734
     11        6           0.005334667    0.018585318    0.000445389
     12        8           0.003287609   -0.010333306    0.000564108
     13        8          -0.017269971   -0.000374230    0.006392896
     14        6          -0.011396528    0.015224045    0.006356566
     15        8           0.002054498   -0.007698777   -0.004520877
     16        8           0.015857972    0.010318430   -0.002800764
     17        1          -0.012269125   -0.007573738    0.000509588
     18        6           0.021776709   -0.006462090   -0.003081016
     19        6          -0.015444931    0.010366116    0.002016707
     20        1          -0.005136692    0.000393620    0.005358325
     21        1          -0.001811242    0.006510402   -0.003340434
     22        1           0.005615349    0.000217111    0.001855738
     23        1          -0.000451276   -0.006001556    0.000636998
     24        1           0.001522686   -0.002012425   -0.005658550
 -------------------------------------------------------------------
 Cartesian Forces:  Max     0.021776709 RMS     0.007078718

 GradGradGradGradGradGradGradGradGradGradGradGradGradGradGradGradGradGrad
 Berny optimization.
 Using GEDIIS/GDIIS optimizer.
 FormGI is forming the generalized inverse of G from B-inverse, IUseBI=4.
 Internal  Forces:  Max     0.015735271 RMS     0.004363155
 Search for a local minimum.
 Step number   2 out of a maximum of  120
 All quantities printed in internal units (Hartrees-Bohrs-Radians)
 Mixed Optimization -- RFO/linear search
 Update second derivatives using D2CorX and points    1    2
 DE= -2.90D-02 DEPred=-2.89D-02 R= 1.00D+00
 TightC=F SS=  1.41D+00  RLast= 3.38D-01 DXNew= 5.0454D-01 1.0146D+00
 Trust test= 1.00D+00 RLast= 3.38D-01 DXMaxT set to 5.05D-01
 ITU=  1  0
 Use linear search instead of GDIIS.
     Eigenvalues ---    0.00237   0.00237   0.00237   0.00566   0.00577
     Eigenvalues ---    0.01269   0.01295   0.01295   0.01474   0.01567
     Eigenvalues ---    0.02070   0.02070   0.02070   0.02070   0.02070
     Eigenvalues ---    0.02070   0.02070   0.05457   0.05558   0.05615
     Eigenvalues ---    0.05627   0.10963   0.13466   0.15653   0.16000
     Eigenvalues ---    0.16000   0.16000   0.16000   0.16000   0.16000
     Eigenvalues ---    0.16037   0.20779   0.22000   0.22532   0.22992
     Eigenvalues ---    0.24145   0.24999   0.25000   0.25000   0.25000
     Eigenvalues ---    0.25000   0.25090   0.28413   0.28519   0.32233
     Eigenvalues ---    0.36388   0.37230   0.37230   0.37230   0.37230
     Eigenvalues ---    0.37230   0.37230   0.37230   0.37292   0.40678
     Eigenvalues ---    0.40989   0.41339   0.41553   0.43436   0.45380
     Eigenvalues ---    0.45389   0.45389   0.46588   0.55141   0.80142
     Eigenvalues ---    0.85973
 RFO step:  Lambda=-1.04864948D-02 EMin= 2.36824161D-03
 Quartic linear search produced a step of  0.27047.
 Iteration  1 RMS(Cart)=  0.12978962 RMS(Int)=  0.01199919
 Iteration  2 RMS(Cart)=  0.02929193 RMS(Int)=  0.00055035
 Iteration  3 RMS(Cart)=  0.00065071 RMS(Int)=  0.00032750
 Iteration  4 RMS(Cart)=  0.00000035 RMS(Int)=  0.00032750
 Variable       Old X    -DE/DX   Delta X   Delta X   Delta X     New X
                                 (Linear)    (Quad)   (Total)
    R1        2.64239  -0.00035  -0.00159   0.00018  -0.00140   2.64098
    R2        2.64743   0.00336  -0.00022   0.00918   0.00896   2.65639
    R3        2.04725   0.00527   0.00683   0.01179   0.01862   2.06587
    R4        2.64731   0.00327  -0.00026   0.00891   0.00865   2.65596
    R5        2.04724   0.00535   0.00683   0.01206   0.01888   2.06613
    R6        2.64364   0.00343  -0.00125   0.01013   0.00888   2.65252
    R7        2.80309   0.00229  -0.02896   0.03454   0.00557   2.80866
    R8        2.64343   0.00012  -0.00131   0.00134   0.00003   2.64346
    R9        2.04921   0.00562   0.00736   0.01253   0.01989   2.06910
   R10        2.64369   0.00364  -0.00124   0.01073   0.00949   2.65319
   R11        2.04917   0.00553   0.00735   0.01225   0.01960   2.06877
   R12        2.79991   0.00152  -0.02982   0.03203   0.00220   2.80211
   R13        2.30384  -0.00931  -0.02007  -0.00125  -0.02132   2.28253
   R14        2.62800  -0.01085  -0.02010  -0.01684  -0.03694   2.59106
   R15        2.75199   0.00499   0.01344   0.00456   0.01800   2.76999
   R16        2.29905  -0.00646  -0.02136   0.00397  -0.01739   2.28166
   R17        2.61091  -0.00249  -0.02472   0.01145  -0.01327   2.59764
   R18        1.83572   0.01196   0.00584   0.02226   0.02810   1.86382
   R19        2.90256  -0.00751  -0.00206  -0.02986  -0.03192   2.87064
   R20        2.06274   0.00607   0.01102   0.01112   0.02213   2.08487
   R21        2.06716   0.00646   0.01221   0.01145   0.02367   2.09083
   R22        2.05056   0.00575   0.00772   0.01265   0.02037   2.07093
   R23        2.05238   0.00573   0.00821   0.01219   0.02041   2.07279
   R24        2.05286   0.00591   0.00835   0.01269   0.02103   2.07389
    A1        2.08360   0.00039  -0.00292   0.00447   0.00155   2.08515
    A2        2.10148   0.00039   0.00192   0.00151   0.00342   2.10490
    A3        2.09811  -0.00077   0.00100  -0.00598  -0.00497   2.09313
    A4        2.08412   0.00049  -0.00278   0.00480   0.00203   2.08615
    A5        2.10128   0.00041   0.00186   0.00185   0.00371   2.10499
    A6        2.09778  -0.00090   0.00092  -0.00665  -0.00574   2.09205
    A7        2.11460  -0.00071   0.00547  -0.00864  -0.00317   2.11143
    A8        2.09438   0.00234  -0.00000   0.01133   0.01132   2.10570
    A9        2.07420  -0.00163  -0.00546  -0.00270  -0.00816   2.06604
   A10        2.08480   0.00031  -0.00259   0.00403   0.00144   2.08624
   A11        2.09630  -0.00063   0.00052  -0.00465  -0.00413   2.09217
   A12        2.10208   0.00032   0.00208   0.00061   0.00269   2.10477
   A13        2.08405   0.00028  -0.00280   0.00415   0.00135   2.08540
   A14        2.10213   0.00026   0.00209   0.00007   0.00217   2.10429
   A15        2.09701  -0.00054   0.00071  -0.00422  -0.00352   2.09349
   A16        2.11519  -0.00075   0.00562  -0.00882  -0.00319   2.11199
   A17        2.09446   0.00231   0.00002   0.01112   0.01114   2.10560
   A18        2.07354  -0.00156  -0.00564  -0.00231  -0.00795   2.06559
   A19        2.14865   0.01344   0.01467   0.05101   0.06567   2.21432
   A20        2.03081  -0.01574  -0.01720  -0.05972  -0.07694   1.95388
   A21        2.10365   0.00229   0.00250   0.00867   0.01116   2.11481
   A22        1.98253   0.00914   0.01945   0.02613   0.04558   2.02811
   A23        2.16312   0.01383   0.01859   0.04931   0.06789   2.23101
   A24        2.03914  -0.01416  -0.01494  -0.05421  -0.06916   1.96998
   A25        2.08089   0.00033  -0.00365   0.00487   0.00121   2.08210
   A26        1.92096   0.00811   0.00279   0.05618   0.05897   1.97993
   A27        1.85297  -0.00685  -0.01560  -0.02845  -0.04359   1.80938
   A28        1.91248  -0.00060   0.00050  -0.02515  -0.02401   1.88847
   A29        1.91800  -0.00015   0.00199  -0.02141  -0.01878   1.89922
   A30        1.93463   0.00445   0.00649   0.03217   0.03734   1.97197
   A31        1.93342   0.00424   0.00616   0.03171   0.03665   1.97007
   A32        1.91161  -0.00124   0.00026   0.00904   0.00729   1.91890
   A33        1.91536   0.00138   0.00128   0.01022   0.01139   1.92674
   A34        1.92816   0.00190   0.00474   0.00804   0.01269   1.94085
   A35        1.92596   0.00173   0.00415   0.00716   0.01123   1.93719
   A36        1.90077  -0.00146  -0.00267  -0.00592  -0.00870   1.89207
   A37        1.90019  -0.00146  -0.00283  -0.00637  -0.00929   1.89090
   A38        1.89289  -0.00221  -0.00480  -0.01377  -0.01863   1.87426
    D1        0.00009  -0.00002   0.00003  -0.00115  -0.00113  -0.00104
    D2        3.14136  -0.00001  -0.00006  -0.00041  -0.00048   3.14088
    D3       -3.14147   0.00000   0.00003  -0.00021  -0.00018   3.14154
    D4       -0.00020   0.00001  -0.00005   0.00053   0.00048   0.00028
    D5       -0.00048  -0.00001  -0.00013   0.00029   0.00016  -0.00032
    D6        3.13973  -0.00009  -0.00050  -0.00184  -0.00235   3.13738
    D7        3.14108  -0.00003  -0.00014  -0.00065  -0.00079   3.14029
    D8       -0.00190  -0.00011  -0.00051  -0.00278  -0.00330  -0.00520
    D9       -0.00032   0.00000  -0.00009   0.00051   0.00043   0.00010
   D10        3.13941  -0.00010  -0.00059  -0.00193  -0.00253   3.13688
   D11       -3.14159  -0.00001  -0.00000  -0.00023  -0.00023   3.14136
   D12       -0.00186  -0.00011  -0.00050  -0.00267  -0.00319  -0.00505
   D13        0.00093   0.00005   0.00025   0.00102   0.00128   0.00221
   D14       -3.14149   0.00002   0.00003   0.00042   0.00046  -3.14103
   D15       -3.13882   0.00015   0.00075   0.00342   0.00415  -3.13467
   D16        0.00195   0.00011   0.00053   0.00281   0.00333   0.00528
   D17        3.13686  -0.00009  -0.00128   0.00213   0.00078   3.13765
   D18        0.00812   0.00028   0.00220   0.00605   0.00831   0.01644
   D19       -0.00655  -0.00019  -0.00177  -0.00026  -0.00209  -0.00864
   D20       -3.13529   0.00019   0.00171   0.00367   0.00544  -3.12985
   D21       -0.00129  -0.00008  -0.00035  -0.00188  -0.00224  -0.00353
   D22        3.14113  -0.00004  -0.00013  -0.00117  -0.00130   3.13983
   D23        3.14112  -0.00005  -0.00013  -0.00128  -0.00141   3.13971
   D24        0.00036  -0.00001   0.00010  -0.00056  -0.00047  -0.00011
   D25        0.00109   0.00006   0.00029   0.00124   0.00154   0.00263
   D26       -3.13914   0.00014   0.00066   0.00333   0.00398  -3.13516
   D27       -3.14133   0.00002   0.00007   0.00053   0.00061  -3.14072
   D28        0.00162   0.00010   0.00044   0.00262   0.00305   0.00467
   D29        3.13845  -0.00008  -0.00085  -0.00039  -0.00131   3.13714
   D30        0.00486   0.00018   0.00132   0.00380   0.00518   0.01005
   D31       -0.00449  -0.00016  -0.00121  -0.00247  -0.00375  -0.00824
   D32       -3.13808   0.00010   0.00095   0.00172   0.00274  -3.13534
   D33       -2.69938  -0.00592  -0.02201  -0.21362  -0.23549  -2.93487
   D34        0.45471  -0.00565  -0.01863  -0.21015  -0.22893   0.22578
   D35       -3.14042   0.00015   0.00032   0.00435   0.00477  -3.13565
   D36        1.05259  -0.00088   0.00146  -0.00403  -0.00294   1.04965
   D37       -1.04870   0.00112  -0.00041   0.01399   0.01386  -1.03484
   D38       -2.69748  -0.00591  -0.02150  -0.21538  -0.23673  -2.93421
   D39        0.45172  -0.00574  -0.01944  -0.21162  -0.23121   0.22051
   D40       -3.14033   0.00010   0.00034   0.00078   0.00112  -3.13920
   D41       -1.04423   0.00037   0.00080   0.00505   0.00588  -1.03836
   D42        1.04887  -0.00005   0.00045  -0.00232  -0.00187   1.04701
   D43       -1.06466  -0.00229  -0.00472  -0.02890  -0.03435  -1.09901
   D44        1.03143  -0.00202  -0.00426  -0.02463  -0.02960   1.00183
   D45        3.12454  -0.00244  -0.00461  -0.03200  -0.03734   3.08720
   D46        1.06122   0.00206   0.00379   0.02620   0.03069   1.09191
   D47       -3.12587   0.00234   0.00425   0.03047   0.03544  -3.09043
   D48       -1.03277   0.00191   0.00390   0.02310   0.02770  -1.00506
         Item               Value     Threshold  Converged?
 Maximum Force            0.015735     0.000450     NO 
 RMS     Force            0.004363     0.000300     NO 
 Maximum Displacement     0.591021     0.001800     NO 
 RMS     Displacement     0.154309     0.001200     NO 
 Predicted change in Energy=-9.124176D-03
 GradGradGradGradGradGradGradGradGradGradGradGradGradGradGradGradGradGrad

                          Input orientation:                          
 ---------------------------------------------------------------------
 Center     Atomic      Atomic             Coordinates (Angstroms)
 Number     Number       Type             X           Y           Z
 ---------------------------------------------------------------------
      1          6           0        0.099725    0.427573   -0.232295
      2          6           0        1.373732    0.978724   -0.070183
      3          6           0        1.503671    2.342792    0.242540
      4          6           0        0.372636    3.160027    0.394636
      5          6           0       -0.903008    2.608533    0.235282
      6          6           0       -1.032614    1.246244   -0.078732
      7          1           0       -0.021728   -0.631256   -0.475692
      8          1           0        2.267104    0.358907   -0.184723
      9          1           0        0.494847    4.220577    0.637842
     10          1           0       -1.796721    3.229975    0.351703
     11          6           0        2.846201    2.953422    0.426313
     12          8           0        3.087643    4.106854    0.691322
     13          8           0        3.853756    2.043645    0.233598
     14          6           0       -2.396340    0.689823   -0.250148
     15          8           0       -3.450802    1.268541   -0.145221
     16          8           0       -2.392320   -0.652333   -0.547056
     17          1           0       -3.269704   -0.991112   -0.844029
     18          6           0        5.194656    2.465156    0.649441
     19          6           0        6.068893    1.271273    0.306006
     20          1           0        5.167698    2.682538    1.730743
     21          1           0        5.472210    3.377201    0.087928
     22          1           0        7.111549    1.470531    0.578287
     23          1           0        5.737913    0.371066    0.838179
     24          1           0        6.028647    1.050580   -0.768279
 ---------------------------------------------------------------------
                    Distance matrix (angstroms):
                    1          2          3          4          5
     1  C    0.000000
     2  C    1.397548   0.000000
     3  C    2.421693   1.405476   0.000000
     4  C    2.816705   2.444653   1.403654   0.000000
     5  C    2.445545   2.816581   2.421316   1.398859   0.000000
     6  C    1.405702   2.421186   2.781794   2.421027   1.404007
     7  H    1.093212   2.168820   3.418722   3.909836   3.431963
     8  H    2.168988   1.093347   2.168222   3.430880   3.909838
     9  H    3.911539   3.432688   2.167963   1.094921   2.171344
    10  H    3.433805   3.911251   3.419297   2.170909   1.094745
    11  C    3.789038   2.512788   1.486280   2.482380   3.769882
    12  O    4.828853   3.647270   2.412941   2.890634   4.286984
    13  O    4.113574   2.716037   2.369065   3.659294   4.790188
    14  C    2.509868   3.785405   4.264403   3.766282   2.479341
    15  O    3.649802   4.833813   5.084405   4.299749   2.903724
    16  O    2.734147   4.131694   4.977246   4.802692   3.669244
    17  H    3.706742   5.102997   5.922892   5.659760   4.441126
    18  C    5.557654   4.162548   3.715362   4.878488   6.113394
    19  C    6.052484   4.719285   4.689716   6.001883   7.099343
    20  H    5.884109   4.532163   3.969291   5.000580   6.252628
    21  H    6.137299   4.751338   4.104048   5.113403   6.423081
    22  H    7.135157   5.795251   5.685232   6.949897   8.102211
    23  H    5.739187   4.498939   4.708641   6.063104   7.033603
    24  H    5.985610   4.707520   4.813209   6.147569   7.175110
                    6          7          8          9         10
     6  C    0.000000
     7  H    2.168980   0.000000
     8  H    3.418588   2.510744   0.000000
     9  H    3.419543   5.004707   4.327818   0.000000
    10  H    2.168944   4.329467   5.004543   2.512857   0.000000
    11  C    4.267872   4.678520   2.727678   2.679420   4.651749
    12  O    5.074701   5.786173   3.935460   2.595840   4.974059
    13  O    4.960848   4.762096   2.351765   4.023023   5.774877
    14  C    1.482813   2.726701   4.675628   4.649055   2.678458
    15  O    2.419204   3.934080   5.789943   4.989573   2.613453
    16  O    2.381747   2.371760   4.781644   5.786619   4.029245
    17  H    3.255151   3.288543   5.737026   6.597687   4.627853
    18  C    6.387087   6.169632   3.701713   5.016956   7.039385
    19  C    7.111966   6.428556   3.940410   6.314943   8.105953
    20  H    6.616723   6.540622   4.181115   5.039399   7.120714
    21  H    6.847006   6.824130   4.411025   5.078173   7.275205
    22  H    8.173700   7.510793   5.028572   7.165685   9.083185
    23  H    6.888157   5.992025   3.618424   6.507582   8.073458
    24  H    7.097547   6.286591   3.868870   6.530621   8.200031
                   11         12         13         14         15
    11  C    0.000000
    12  O    1.207861   0.000000
    13  O    1.371131   2.247948   0.000000
    14  C    5.750279   6.529665   6.413309   0.000000
    15  O    6.543525   7.176843   7.355328   1.207400   0.000000
    16  O    6.433585   7.362977   6.847713   1.374610   2.229711
    17  H    7.387652   8.292310   7.817589   1.985195   2.372164
    18  C    2.409031   2.671410   1.465814   7.847565   8.763978
    19  C    3.637286   4.132413   2.347049   8.503385   9.530383
    20  H    2.676615   2.726848   2.091906   8.069047   8.932926
    21  H    2.681421   2.565665   2.102138   8.321681   9.171747
    22  H    4.518324   4.811942   3.325731   9.575790  10.589028
    23  H    3.898743   4.582751   2.590963   8.212924   9.284665
    24  H    3.895616   4.485616   2.592314   8.448610   9.502403
                   16         17         18         19         20
    16  O    0.000000
    17  H    0.986289   0.000000
    18  C    8.289303   9.263996   0.000000
    19  C    8.718951   9.677311   1.519077   0.000000
    20  H    8.571092   9.555883   1.103266   2.198567   0.000000
    21  H    8.859525   9.816911   1.106417   2.199664   1.809454
    22  H    9.802881  10.763506   2.160745   1.095888   2.564307
    23  H    8.310650   9.264043   2.171627   1.096872   2.542582
    24  H    8.594274   9.520167   2.169446   1.097458   3.106385
                   21         22         23         24
    21  H    0.000000
    22  H    2.561888   0.000000
    23  H    3.109714   1.778551   0.000000
    24  H    2.540842   1.778278   1.768324   0.000000
 Stoichiometry    C10H10O4
 Framework group  C1[X(C10H10O4)]
 Deg. of freedom    66
 Full point group                 C1      NOp   1
 Largest Abelian subgroup         C1      NOp   1
 Largest concise Abelian subgroup C1      NOp   1
                         Standard orientation:                         
 ---------------------------------------------------------------------
 Center     Atomic      Atomic             Coordinates (Angstroms)
 Number     Number       Type             X           Y           Z
 ---------------------------------------------------------------------
      1          6           0       -1.320745   -1.085595   -0.028928
      2          6           0        0.052877   -0.828961   -0.049930
      3          6           0        0.509490    0.500209   -0.036787
      4          6           0       -0.393775    1.574080   -0.002748
      5          6           0       -1.768794    1.318035    0.021101
      6          6           0       -2.224818   -0.009767    0.006308
      7          1           0       -1.695231   -2.112618   -0.038735
      8          1           0        0.772538   -1.651627   -0.076733
      9          1           0       -0.018194    2.602528    0.006474
     10          1           0       -2.488245    2.142690    0.049418
     11          6           0        1.964815    0.801559   -0.052530
     12          8           0        2.478681    1.894648   -0.047449
     13          8           0        2.723920   -0.339249   -0.100660
[...]
     16          8           0       -2.363381   -0.627574   -0.655503
     17          1           0       -3.275939   -0.998952   -0.803517
     18          6           0        5.216330    2.490840    0.579435
     19          6           0        6.058871    1.265586    0.304402
     20          1           0        5.291472    2.858956    1.617171
     21          1           0        5.391458    3.319647   -0.128036
     22          1           0        7.127232    1.485189    0.423023
     23          1           0        5.806462    0.441359    0.986026
     24          1           0        5.903263    0.890114   -0.716595
 ---------------------------------------------------------------------
                    Distance matrix (angstroms):
                    1          2          3          4          5
     1  C    0.000000
     2  C    1.396626   0.000000
     3  C    2.419186   1.401504   0.000000
     4  C    2.809930   2.438071   1.403516   0.000000
     5  C    2.439151   2.809978   2.419744   1.395519   0.000000
     6  C    1.402059   2.419061   2.783256   2.419531   1.404017
     7  H    1.094142   2.168841   3.416467   3.903996   3.426666
     8  H    2.168800   1.094204   2.163927   3.425429   3.904100
     9  H    3.904656   3.425512   2.165987   1.094819   2.168762
    10  H    3.426902   3.904389   3.417568   2.168006   1.094485
    11  C    3.795412   2.521328   1.489882   2.479431   3.766868
    12  O    4.841879   3.661312   2.427886   2.901934   4.295321
    13  O    4.101583   2.704961   2.354940   3.646141   4.774491
    14  C    2.514719   3.788340   4.266200   3.761500   2.475397
    15  O    3.662343   4.847749   5.102823   4.315727   2.922936
    16  O    2.716109   4.112732   4.960123   4.785149   3.656594
    17  H    3.712260   5.108883   5.927091   5.657136   4.438005
    18  C    5.573030   4.176799   3.727806   4.893503   6.127936
    19  C    6.038629   4.707001   4.679019   5.994031   7.087488
    20  H    6.022135   4.650137   4.043381   5.068798   6.350239
    21  H    6.026404   4.654244   4.038476   5.058495   6.343031
    22  H    7.133748   5.794811   5.689145   6.959357   8.107784
    23  H    5.834167   4.579642   4.747557   6.096674   7.087376
    24  H    5.837559   4.582845   4.742863   6.087792   7.080435
                    6          7          8          9         10
     6  C    0.000000
     7  H    2.164809   0.000000
     8  H    3.416550   2.510743   0.000000
     9  H    3.418181   4.998759   4.321404   0.000000
    10  H    2.167213   4.323360   4.998545   2.510626   0.000000
    11  C    4.272705   4.686896   2.738462   2.668771   4.646315
    12  O    5.088771   5.800308   3.949380   2.599246   4.979572
    13  O    4.948791   4.751489   2.342473   4.009383   5.759126
    14  C    1.483326   2.733474   4.680148   4.642856   2.669017
    15  O    2.435334   3.942579   5.803429   5.005232   2.629138
    16  O    2.365786   2.352466   4.762299   5.770390   4.019519
    17  H    3.252603   3.295325   5.745148   6.594295   4.619727
    18  C    6.405143   6.184503   3.711554   5.028579   7.054222
    19  C    7.100219   6.412754   3.924160   6.308595   8.095153
    20  H    6.747478   6.693676   4.299131   5.067725   7.211543
    21  H    6.746488   6.702018   4.309357   5.051517   7.201694
    22  H    8.177283   7.505228   5.020800   7.177696   9.091133
    23  H    6.969904   6.104366   3.711679   6.517126   8.122266
    24  H    6.968170   6.112290   3.722228   6.504470   8.113148
                   11         12         13         14         15
    11  C    0.000000
    12  O    1.210936   0.000000
    13  O    1.372095   2.256030   0.000000
    14  C    5.755214   6.541608   6.404077   0.000000
    15  O    6.563039   7.205435   7.359711   1.209313   0.000000
    16  O    6.422303   7.360041   6.817676   1.378824   2.235549
    17  H    7.398588   8.309660   7.813843   1.981969   2.350176
    18  C    2.421513   2.680626   1.474197   7.868711   8.800265
    19  C    3.639926   4.139581   2.348089   8.495230   9.535359
    20  H    2.678582   2.644382   2.090149   8.213995   9.087666
    21  H    2.668026   2.622435   2.091504   8.213907   9.084876
    22  H    4.532254   4.830224   3.334872   9.582737  10.610982
    23  H    3.907199   4.556234   2.595782   8.309972   9.386432
    24  H    3.899759   4.543724   2.596304   8.309049   9.383011
                   16         17         18         19         20
    16  O    0.000000
    17  H    0.996289   0.000000
    18  C    8.288643   9.284925   0.000000
    19  C    8.685609   9.669244   1.512206   0.000000
    20  H    8.713077   9.702769   1.103654   2.202520   0.000000
    21  H    8.717586   9.707232   1.103679   2.202638   1.807756
    22  H    9.782573  10.765748   2.165028   1.097129   2.585197
    23  H    8.401403   9.368402   2.171162   1.098941   2.551144
    24  H    8.405029   9.371972   2.171150   1.098921   3.114015
                   21         22         23         24
    21  H    0.000000
    22  H    2.584921   0.000000
    23  H    3.114146   1.775103   0.000000
    24  H    2.551661   1.775090   1.763426   0.000000
 Stoichiometry    C10H10O4
 Framework group  C1[X(C10H10O4)]
 Deg. of freedom    66
 Full point group                 C1      NOp   1
 Largest Abelian subgroup         C1      NOp   1
 Largest concise Abelian subgroup C1      NOp   1
                         Standard orientation:                         
 ---------------------------------------------------------------------
 Center     Atomic      Atomic             Coordinates (Angstroms)
 Number     Number       Type             X           Y           Z
 ---------------------------------------------------------------------
      1          6           0       -1.320161   -1.083848    0.003842
      2          6           0        0.052701   -0.827310    0.004759
      3          6           0        0.510915    0.497169    0.001527
      4          6           0       -0.394794    1.569331   -0.002571
      5          6           0       -1.766766    1.314056   -0.003575
      6          6           0       -2.225182   -0.013012   -0.000300
      7          1           0       -1.694826   -2.111840    0.006301
      8          1           0        0.773222   -1.650792    0.007960
      9          1           0       -0.018501    2.597449   -0.004849
     10          1           0       -2.486792    2.138342   -0.006942
     11          6           0        1.966743    0.813888    0.002336
     12          8           0        2.487404    1.907175    0.001200
     13          8           0        2.712955   -0.337549    0.004517
     14          6           0       -3.690434   -0.243855   -0.001307
     15          8           0       -4.591483    0.562704   -0.004731
     16          8           0       -3.988687   -1.590030    0.002361
     17          1           0       -4.970948   -1.756626    0.001542
     18          6           0        4.177955   -0.173153    0.006363
     19          6           0        4.696909   -1.593401   -0.012331
     20          1           0        4.447503    0.387296    0.918116
     21          1           0        4.448949    0.411780   -0.889473
     22          1           0        5.793846   -1.613950   -0.012269
     23          1           0        4.349089   -2.161328    0.861827
     24          1           0        4.349626   -2.137920   -0.901443
 ---------------------------------------------------------------------
 Rotational constants (GHZ):           1.9636508           0.2864910           0.2508133

 **********************************************************************

            Population analysis using the SCF density.

 **********************************************************************

 Orbital symmetries:
       Occupied  (A) (A) (A) (A) (A) (A) (A) (A) (A) (A) (A) (A)
                 (A) (A) (A) (A) (A) (A) (A) (A) (A) (A) (A) (A)
                 (A) (A) (A) (A) (A) (A) (A) (A) (A) (A) (A) (A)
                 (A)
       Virtual   (A) (A) (A) (A) (A) (A) (A) (A) (A) (A) (A) (A)
                 (A) (A) (A) (A) (A) (A) (A) (A) (A) (A) (A) (A)
                 (A) (A) (A) (A) (A)
 The electronic state is 1-A.
 Alpha  occ. eigenvalues --   -1.19994  -1.18700  -1.13428  -1.13126  -1.12522
 Alpha  occ. eigenvalues --   -1.04044  -1.00466  -0.98329  -0.91286  -0.83827
 Alpha  occ. eigenvalues --   -0.80887  -0.79579  -0.75790  -0.69080  -0.66222
 Alpha  occ. eigenvalues --   -0.64558  -0.63188  -0.61828  -0.60099  -0.58501
 Alpha  occ. eigenvalues --   -0.58073  -0.56342  -0.55314  -0.54355  -0.52223
 Alpha  occ. eigenvalues --   -0.51135  -0.50758  -0.49587  -0.48002  -0.47721
 Alpha  occ. eigenvalues --   -0.46672  -0.45871  -0.42393  -0.42114  -0.41176
 Alpha  occ. eigenvalues --   -0.39205  -0.38470
 Alpha virt. eigenvalues --   -0.05217  -0.01487   0.00949   0.03587   0.03630
 Alpha virt. eigenvalues --    0.05158   0.07172   0.09389   0.10233   0.11376
 Alpha virt. eigenvalues --    0.12816   0.13392   0.13942   0.14666   0.15082
 Alpha virt. eigenvalues --    0.15240   0.15976   0.17020   0.17285   0.17958
 Alpha virt. eigenvalues --    0.17983   0.18934   0.19093   0.19721   0.19904
 Alpha virt. eigenvalues --    0.20160   0.20371   0.20622   0.23085
          Condensed to atoms (all electrons):
               1          2          3          4          5          6
     1  C    4.090811   0.000000   0.000000   0.000000   0.000000   0.000000
     2  C    0.000000   4.104408   0.000000   0.000000   0.000000   0.000000
     3  C    0.000000   0.000000   4.107234   0.000000   0.000000   0.000000
     4  C    0.000000   0.000000   0.000000   4.107754   0.000000   0.000000
     5  C    0.000000   0.000000   0.000000   0.000000   4.097265   0.000000
     6  C    0.000000   0.000000   0.000000   0.000000   0.000000   4.124091
     7  H    0.000000   0.000000   0.000000   0.000000   0.000000   0.000000
     8  H    0.000000   0.000000   0.000000   0.000000   0.000000   0.000000
     9  H    0.000000   0.000000   0.000000   0.000000   0.000000   0.000000
    10  H    0.000000   0.000000   0.000000   0.000000   0.000000   0.000000
    11  C    0.000000   0.000000   0.000000   0.000000   0.000000   0.000000
    12  O    0.000000   0.000000   0.000000   0.000000   0.000000   0.000000
    13  O    0.000000   0.000000   0.000000   0.000000   0.000000   0.000000
    14  C    0.000000   0.000000   0.000000   0.000000   0.000000   0.000000
    15  O    0.000000   0.000000   0.000000   0.000000   0.000000   0.000000
    16  O    0.000000   0.000000   0.000000   0.000000   0.000000   0.000000
    17  H    0.000000   0.000000   0.000000   0.000000   0.000000   0.000000
    18  C    0.000000   0.000000   0.000000   0.000000   0.000000   0.000000
    19  C    0.000000   0.000000   0.000000   0.000000   0.000000   0.000000
    20  H    0.000000   0.000000   0.000000   0.000000   0.000000   0.000000
    21  H    0.000000   0.000000   0.000000   0.000000   0.000000   0.000000
    22  H    0.000000   0.000000   0.000000   0.000000   0.000000   0.000000
    23  H    0.000000   0.000000   0.000000   0.000000   0.000000   0.000000
    24  H    0.000000   0.000000   0.000000   0.000000   0.000000   0.000000
               7          8          9         10         11         12
     1  C    0.000000   0.000000   0.000000   0.000000   0.000000   0.000000
     2  C    0.000000   0.000000   0.000000   0.000000   0.000000   0.000000
     3  C    0.000000   0.000000   0.000000   0.000000   0.000000   0.000000
     4  C    0.000000   0.000000   0.000000   0.000000   0.000000   0.000000
     5  C    0.000000   0.000000   0.000000   0.000000   0.000000   0.000000
     6  C    0.000000   0.000000   0.000000   0.000000   0.000000   0.000000
     7  H    0.823315   0.000000   0.000000   0.000000   0.000000   0.000000
     8  H    0.000000   0.822116   0.000000   0.000000   0.000000   0.000000
     9  H    0.000000   0.000000   0.820501   0.000000   0.000000   0.000000
    10  H    0.000000   0.000000   0.000000   0.822876   0.000000   0.000000
    11  C    0.000000   0.000000   0.000000   0.000000   3.384235   0.000000
    12  O    0.000000   0.000000   0.000000   0.000000   0.000000   6.509749
    13  O    0.000000   0.000000   0.000000   0.000000   0.000000   0.000000
    14  C    0.000000   0.000000   0.000000   0.000000   0.000000   0.000000
    15  O    0.000000   0.000000   0.000000   0.000000   0.000000   0.000000
    16  O    0.000000   0.000000   0.000000   0.000000   0.000000   0.000000
    17  H    0.000000   0.000000   0.000000   0.000000   0.000000   0.000000
    18  C    0.000000   0.000000   0.000000   0.000000   0.000000   0.000000
    19  C    0.000000   0.000000   0.000000   0.000000   0.000000   0.000000
    20  H    0.000000   0.000000   0.000000   0.000000   0.000000   0.000000
    21  H    0.000000   0.000000   0.000000   0.000000   0.000000   0.000000
    22  H    0.000000   0.000000   0.000000   0.000000   0.000000   0.000000
    23  H    0.000000   0.000000   0.000000   0.000000   0.000000   0.000000
    24  H    0.000000   0.000000   0.000000   0.000000   0.000000   0.000000
              13         14         15         16         17         18
     1  C    0.000000   0.000000   0.000000   0.000000   0.000000   0.000000
     2  C    0.000000   0.000000   0.000000   0.000000   0.000000   0.000000
     3  C    0.000000   0.000000   0.000000   0.000000   0.000000   0.000000
     4  C    0.000000   0.000000   0.000000   0.000000   0.000000   0.000000
     5  C    0.000000   0.000000   0.000000   0.000000   0.000000   0.000000
     6  C    0.000000   0.000000   0.000000   0.000000   0.000000   0.000000
     7  H    0.000000   0.000000   0.000000   0.000000   0.000000   0.000000
     8  H    0.000000   0.000000   0.000000   0.000000   0.000000   0.000000
     9  H    0.000000   0.000000   0.000000   0.000000   0.000000   0.000000
    10  H    0.000000   0.000000   0.000000   0.000000   0.000000   0.000000
    11  C    0.000000   0.000000   0.000000   0.000000   0.000000   0.000000
    12  O    0.000000   0.000000   0.000000   0.000000   0.000000   0.000000
    13  O    6.460596   0.000000   0.000000   0.000000   0.000000   0.000000
    14  C    0.000000   3.370465   0.000000   0.000000   0.000000   0.000000
    15  O    0.000000   0.000000   6.496540   0.000000   0.000000   0.000000
    16  O    0.000000   0.000000   0.000000   6.529590   0.000000   0.000000
    17  H    0.000000   0.000000   0.000000   0.000000   0.655276   0.000000
    18  C    0.000000   0.000000   0.000000   0.000000   0.000000   3.948056
    19  C    0.000000   0.000000   0.000000   0.000000   0.000000   0.000000
    20  H    0.000000   0.000000   0.000000   0.000000   0.000000   0.000000
    21  H    0.000000   0.000000   0.000000   0.000000   0.000000   0.000000
    22  H    0.000000   0.000000   0.000000   0.000000   0.000000   0.000000
    23  H    0.000000   0.000000   0.000000   0.000000   0.000000   0.000000
    24  H    0.000000   0.000000   0.000000   0.000000   0.000000   0.000000
              19         20         21         22         23         24
     1  C    0.000000   0.000000   0.000000   0.000000   0.000000   0.000000
     2  C    0.000000   0.000000   0.000000   0.000000   0.000000   0.000000
     3  C    0.000000   0.000000   0.000000   0.000000   0.000000   0.000000
     4  C    0.000000   0.000000   0.000000   0.000000   0.000000   0.000000
     5  C    0.000000   0.000000   0.000000   0.000000   0.000000   0.000000
     6  C    0.000000   0.000000   0.000000   0.000000   0.000000   0.000000
     7  H    0.000000   0.000000   0.000000   0.000000   0.000000   0.000000
     8  H    0.000000   0.000000   0.000000   0.000000   0.000000   0.000000
     9  H    0.000000   0.000000   0.000000   0.000000   0.000000   0.000000
    10  H    0.000000   0.000000   0.000000   0.000000   0.000000   0.000000
    11  C    0.000000   0.000000   0.000000   0.000000   0.000000   0.000000
    12  O    0.000000   0.000000   0.000000   0.000000   0.000000   0.000000
    13  O    0.000000   0.000000   0.000000   0.000000   0.000000   0.000000
    14  C    0.000000   0.000000   0.000000   0.000000   0.000000   0.000000
    15  O    0.000000   0.000000   0.000000   0.000000   0.000000   0.000000
    16  O    0.000000   0.000000   0.000000   0.000000   0.000000   0.000000
    17  H    0.000000   0.000000   0.000000   0.000000   0.000000   0.000000
    18  C    0.000000   0.000000   0.000000   0.000000   0.000000   0.000000
    19  C    4.500719   0.000000   0.000000   0.000000   0.000000   0.000000
    20  H    0.000000   0.867268   0.000000   0.000000   0.000000   0.000000
    21  H    0.000000   0.000000   0.866821   0.000000   0.000000   0.000000
    22  H    0.000000   0.000000   0.000000   0.833430   0.000000   0.000000
    23  H    0.000000   0.000000   0.000000   0.000000   0.828467   0.000000
    24  H    0.000000   0.000000   0.000000   0.000000   0.000000   0.828418
 Mulliken charges:
               1
     1  C   -0.090811
     2  C   -0.104408
     3  C   -0.107234
     4  C   -0.107754
     5  C   -0.097265
     6  C   -0.124091
     7  H    0.176685
     8  H    0.177884
     9  H    0.179499
    10  H    0.177124
    11  C    0.615765
    12  O   -0.509749
    13  O   -0.460596
    14  C    0.629535
    15  O   -0.496540
    16  O   -0.529590
    17  H    0.344724
    18  C    0.051944
    19  C   -0.500719
    20  H    0.132732
    21  H    0.133179
    22  H    0.166570
    23  H    0.171533
    24  H    0.171582
 Sum of Mulliken charges =   0.00000
 Mulliken charges with hydrogens summed into heavy atoms:
               1
     1  C    0.085874
     2  C    0.073476
     3  C   -0.107234
     4  C    0.071745
     5  C    0.079859
     6  C   -0.124091
    11  C    0.615765
    12  O   -0.509749
    13  O   -0.460596
    14  C    0.629535
    15  O   -0.496540
    16  O   -0.184866
    18  C    0.317855
    19  C    0.008967
 Charge=             -0.0000 electrons
 Dipole moment (field-independent basis, Debye):
    X=              1.7957    Y=             -3.0511    Z=              0.0023  Tot=              3.5403
 N-N= 4.819346803626D+02 E-N=-7.610826803081D+02  KE=-1.521810699198D+02
 1\1\GINC-TOTEM\FOpt\RPM6\ZDO\C10H10O4\JRAMOS\14-Oct-2019\0\\# opt pm6 
 geom=connectivity\\Title Card Required\\0,1\C,0.1030568654,0.432205000
 2,-0.2422207103\C,1.3728662614,0.9737233521,-0.0303108831\C,1.50176150
 71,2.3266772973,0.311910985\C,0.3685043676,3.1440405337,0.4442126883\C
 ,-0.9007377486,2.6039321223,0.2325987814\C,-1.029213711,1.248475422,-0
 .1101781867\H,-0.0154247013,-0.6220218488,-0.5100178697\H,2.2673941444
 ,0.3513508829,-0.1290805782\H,0.4885236783,4.19869716,0.7123960642\H,-
 1.794968111,3.2272129757,0.3314423543\C,2.8376752152,2.9432035446,0.54
 63839116\O,3.0820668496,4.0906642047,0.8463395239\O,3.8352962672,2.016
 5894876,0.3767308139\C,-2.3947109185,0.7111410773,-0.3268434232\O,-3.4
 602146841,1.2782247915,-0.252307107\O,-2.3633813204,-0.6275735662,-0.6
 555031085\H,-3.2759386654,-0.9989523869,-0.8035169095\C,5.2163301655,2
 .4908396468,0.5794348118\C,6.0588710394,1.2655855122,0.3044020748\H,5.
 2914721234,2.858956391,1.6171708552\H,5.3914583237,3.3196472941,-0.128
 0363344\H,7.1272324885,1.4851887459,0.4230232621\H,5.8064616054,0.4413
 586955,0.9860261244\H,5.9032626783,0.8901143547,-0.7165946802\\Version
 =ES64L-G16RevA.03\State=1-A\HF=-0.2458741\RMSD=6.938e-09\RMSF=2.776e-0
 5\Dipole=0.9708278,-0.981257,-0.186195\PG=C01 [X(C10H10O4)]\\@


 ALL MEN WHO EXPLORE
 DEPLORE
 THAT FRUSTRATING HURDLE
 THE GIRDLE.

         -- COLIN FLETCHER
 Job cpu time:       0 days  0 hours  0 minutes  5.0 seconds.
 Elapsed time:       0 days  0 hours  0 minutes  4.5 seconds.
 File lengths (MBytes):  RWF=      6 Int=      0 D2E=      0 Chk=      2 Scr=      1
 Normal termination of Gaussian 16 at Mon Oct 14 17:34:04 2019.
