 Entering Gaussian System, Link 0=/opt/gaussian/g16_legacy/g16
 Input=gaussian_02451_2_1.com
 Output=gaussian_02451_2_1.log
 Initial command:
 /opt/gaussian/g16_legacy/l1.exe "/scratch-local/jramos/2601559/Gau-28266.inp" -scrdir="/scratch-local/jramos/2601559/"
 Entering Link 1 = /opt/gaussian/g16_legacy/l1.exe PID=     28267.
  
 Copyright (c) 1988,1990,1992,1993,1995,1998,2003,2009,2016,
            Gaussian, Inc.  All Rights Reserved.
  
 This is part of the Gaussian(R) 16 program.  It is based on
 the Gaussian(R) 09 system (copyright 2009, Gaussian, Inc.),
 the Gaussian(R) 03 system (copyright 2003, Gaussian, Inc.),
 the Gaussian(R) 98 system (copyright 1998, Gaussian, Inc.),
 the Gaussian(R) 94 system (copyright 1995, Gaussian, Inc.),
 the Gaussian 92(TM) system (copyright 1992, Gaussian, Inc.),
 the Gaussian 90(TM) system (copyright 1990, Gaussian, Inc.),
 the Gaussian 88(TM) system (copyright 1988, Gaussian, Inc.),
 the Gaussian 86(TM) system (copyright 1986, Carnegie Mellon
 University), and the Gaussian 82(TM) system (copyright 1983,
 Carnegie Mellon University). Gaussian is a federally registered
 trademark of Gaussian, Inc.
  
 This software contains proprietary and confidential information,
 including trade secrets, belonging to Gaussian, Inc.
  
 This software is provided under written license and may be
 used, copied, transmitted, or stored only in accord with that
 written license.
  
 The following legend is applicable only to US Government
 contracts under FAR:
  
                    RESTRICTED RIGHTS LEGEND
  
 Use, reproduction and disclosure by the US Government is
 subject to restrictions as set forth in subparagraphs (a)
 and (c) of the Commercial Computer Software - Restricted
 Rights clause in FAR 52.227-19.
  
 Gaussian, Inc.
 340 Quinnipiac St., Bldg. 40, Wallingford CT 06492
  
  
 ---------------------------------------------------------------
 Warning -- This program may not be used in any manner that
 competes with the business of Gaussian, Inc. or will provide
 assistance to any competitor of Gaussian, Inc.  The licensee
 of this program is prohibited from giving any competitor of
 Gaussian, Inc. access to this program.  By using this program,
 the user acknowledges that Gaussian, Inc. is engaged in the
 business of creating and licensing software in the field of
 computational chemistry and represents and warrants to the
 licensee that it is not a competitor of Gaussian, Inc. and that
 it will not use this program in any manner prohibited above.
 ---------------------------------------------------------------
  

 Cite this work as:
 Gaussian 16, Revision A.03,
 M. J. Frisch, G. W. Trucks, H. B. Schlegel, G. E. Scuseria, 
 M. A. Robb, J. R. Cheeseman, G. Scalmani, V. Barone, 
 G. A. Petersson, H. Nakatsuji, X. Li, M. Caricato, A. V. Marenich, 
 J. Bloino, B. G. Janesko, R. Gomperts, B. Mennucci, H. P. Hratchian, 
 J. V. Ortiz, A. F. Izmaylov, J. L. Sonnenberg, D. Williams-Young, 
 F. Ding, F. Lipparini, F. Egidi, J. Goings, B. Peng, A. Petrone, 
 T. Henderson, D. Ranasinghe, V. G. Zakrzewski, J. Gao, N. Rega, 
 G. Zheng, W. Liang, M. Hada, M. Ehara, K. Toyota, R. Fukuda, 
 J. Hasegawa, M. Ishida, T. Nakajima, Y. Honda, O. Kitao, H. Nakai, 
 T. Vreven, K. Throssell, J. A. Montgomery, Jr., J. E. Peralta, 
 F. Ogliaro, M. J. Bearpark, J. J. Heyd, E. N. Brothers, K. N. Kudin, 
 V. N. Staroverov, T. A. Keith, R. Kobayashi, J. Normand, 
 K. Raghavachari, A. P. Rendell, J. C. Burant, S. S. Iyengar, 
 J. Tomasi, M. Cossi, J. M. Millam, M. Klene, C. Adamo, R. Cammi, 
 J. W. Ochterski, R. L. Martin, K. Morokuma, O. Farkas, 
 J. B. Foresman, and D. J. Fox, Gaussian, Inc., Wallingford CT, 2016.
 
 ******************************************
 Gaussian 16:  EM64L-G16RevA.03 25-Dec-2016
                 6-May-2021 
 ******************************************
 %chk=gaussian_02451_2_1.chk
 %nproc=2
 Will use up to    2 processors via shared memory.
 %mem=4000Mb
 -------------
 #p 6-31g* mp2
 -------------
 1/38=1,172=1/1;
 2/12=2,17=6,18=5,40=1/2;
 3/5=1,6=6,7=1,11=9,25=1,30=1/1,2,3;
 4//1;
 5/5=2,38=5/2;
 8/10=2/1;
 9/16=-3/6;
 6/7=2,8=2,9=2,10=2/1;
 99/5=1,9=1/99;
 Leave Link    1 at Thu May  6 20:45:13 2021, MaxMem=   524288000 cpu:               0.0 elap:               0.0
 (Enter /opt/gaussian/g16_legacy/l101.exe)
 ------------------------------------------------------
 Input file generated by CHIRIPA (05-May-2021 14:55:22)
 ------------------------------------------------------
 Symbolic Z-matrix:
 Charge =  0 Multiplicity = 1
 C                     1.91414   0.        0. 
 C                     1.21414   1.211     0. 
 C                    -0.18386   1.223     0. 
 C                    -0.85286   0.        0. 
 C                    -0.18386  -1.223     0. 
 C                     1.21414  -1.211     0. 
 H                     3.00014   0.        0. 
 H                     1.75514   2.153     0. 
 H                    -0.75086   2.146     0. 
 H                    -0.75086  -2.146     0. 
 H                     1.75514  -2.153     0. 
 N                    -2.33286   0.        0. 
 O                    -2.89886  -1.091     0. 
 O                    -2.89886   1.091     0. 
 C                    -6.44131  -2.56274   5.24086 
 C                    -6.66735  -1.49077   6.30752 
 C                    -8.06143  -1.56229   6.93139 
 H                    -7.20199  -2.45561   4.45547 
 H                    -6.5928   -3.55426   5.68956 
 H                    -6.51412  -0.50162   5.85728 
 H                    -5.90593  -1.60034   7.09036 
 H                    -8.22153  -2.53571   7.40617 
 H                    -8.83318  -1.43074   6.16608 
 H                    -8.20149  -0.78709   7.6912 
 C                    -5.05219  -2.50415   4.60791 
 C                    -4.82615  -3.57612   3.54125 
 C                    -3.43207  -3.5046    2.91738 
 H                    -4.9007   -1.51263   4.15921 
 H                    -4.29151  -2.61128   5.3933 
 H                    -5.58757  -3.46655   2.75841 
 H                    -4.97938  -4.56527   3.99149 
 H                    -2.66032  -3.63615   3.68269 
 H                    -3.27197  -2.53118   2.4426 
 H                    -3.29201  -4.2798    2.15757 
 
 ITRead=  0  0  0  0  0  0  0  0  0  0  0  0  0  0  0  0  0  0  0  0
 ITRead=  0  0  0  0  0  0  0  0  0  0  0  0  0  0
 MicOpt= -1 -1 -1 -1 -1 -1 -1 -1 -1 -1 -1 -1 -1 -1 -1 -1 -1 -1 -1 -1
 MicOpt= -1 -1 -1 -1 -1 -1 -1 -1 -1 -1 -1 -1 -1 -1
 NAtoms=     34 NQM=       34 NQMF=       0 NMMI=      0 NMMIF=      0
                NMic=       0 NMicF=      0.
                    Isotopes and Nuclear Properties:
 (Nuclear quadrupole moments (NQMom) in fm**2, nuclear magnetic moments (NMagM)
  in nuclear magnetons)

  Atom         1           2           3           4           5           6           7           8           9          10
 IAtWgt=          12          12          12          12          12          12           1           1           1           1
 AtmWgt=  12.0000000  12.0000000  12.0000000  12.0000000  12.0000000  12.0000000   1.0078250   1.0078250   1.0078250   1.0078250
 NucSpn=           0           0           0           0           0           0           1           1           1           1
 AtZEff=  -0.0000000  -0.0000000  -0.0000000  -0.0000000  -0.0000000  -0.0000000  -0.0000000  -0.0000000  -0.0000000  -0.0000000
 NQMom=    0.0000000   0.0000000   0.0000000   0.0000000   0.0000000   0.0000000   0.0000000   0.0000000   0.0000000   0.0000000
 NMagM=    0.0000000   0.0000000   0.0000000   0.0000000   0.0000000   0.0000000   2.7928460   2.7928460   2.7928460   2.7928460
 AtZNuc=   6.0000000   6.0000000   6.0000000   6.0000000   6.0000000   6.0000000   1.0000000   1.0000000   1.0000000   1.0000000

  Atom        11          12          13          14          15          16          17          18          19          20
 IAtWgt=           1          14          16          16          12          12          12           1           1           1
 AtmWgt=   1.0078250  14.0030740  15.9949146  15.9949146  12.0000000  12.0000000  12.0000000   1.0078250   1.0078250   1.0078250
 NucSpn=           1           2           0           0           0           0           0           1           1           1
 AtZEff=  -0.0000000  -0.0000000  -0.0000000  -0.0000000  -0.0000000  -0.0000000  -0.0000000  -0.0000000  -0.0000000  -0.0000000
 NQMom=    0.0000000   2.0440000   0.0000000   0.0000000   0.0000000   0.0000000   0.0000000   0.0000000   0.0000000   0.0000000
 NMagM=    2.7928460   0.4037610   0.0000000   0.0000000   0.0000000   0.0000000   0.0000000   2.7928460   2.7928460   2.7928460
 AtZNuc=   1.0000000   7.0000000   8.0000000   8.0000000   6.0000000   6.0000000   6.0000000   1.0000000   1.0000000   1.0000000

  Atom        21          22          23          24          25          26          27          28          29          30
 IAtWgt=           1           1           1           1          12          12          12           1           1           1
 AtmWgt=   1.0078250   1.0078250   1.0078250   1.0078250  12.0000000  12.0000000  12.0000000   1.0078250   1.0078250   1.0078250
 NucSpn=           1           1           1           1           0           0           0           1           1           1
 AtZEff=  -0.0000000  -0.0000000  -0.0000000  -0.0000000  -0.0000000  -0.0000000  -0.0000000  -0.0000000  -0.0000000  -0.0000000
 NQMom=    0.0000000   0.0000000   0.0000000   0.0000000   0.0000000   0.0000000   0.0000000   0.0000000   0.0000000   0.0000000
 NMagM=    2.7928460   2.7928460   2.7928460   2.7928460   0.0000000   0.0000000   0.0000000   2.7928460   2.7928460   2.7928460
 AtZNuc=   1.0000000   1.0000000   1.0000000   1.0000000   6.0000000   6.0000000   6.0000000   1.0000000   1.0000000   1.0000000

  Atom        31          32          33          34
 IAtWgt=           1           1           1           1
 AtmWgt=   1.0078250   1.0078250   1.0078250   1.0078250
 NucSpn=           1           1           1           1
 AtZEff=  -0.0000000  -0.0000000  -0.0000000  -0.0000000
 NQMom=    0.0000000   0.0000000   0.0000000   0.0000000
 NMagM=    2.7928460   2.7928460   2.7928460   2.7928460
 AtZNuc=   1.0000000   1.0000000   1.0000000   1.0000000
 Leave Link  101 at Thu May  6 20:45:13 2021, MaxMem=   524288000 cpu:               0.1 elap:               0.0
 (Enter /opt/gaussian/g16_legacy/l202.exe)
                          Input orientation:                          
 ---------------------------------------------------------------------
 Center     Atomic      Atomic             Coordinates (Angstroms)
 Number     Number       Type             X           Y           Z
 ---------------------------------------------------------------------
      1          6           0        1.914143    0.000000    0.000000
      2          6           0        1.214143    1.211000    0.000000
      3          6           0       -0.183857    1.223000    0.000000
      4          6           0       -0.852857    0.000000    0.000000
      5          6           0       -0.183857   -1.223000    0.000000
      6          6           0        1.214143   -1.211000    0.000000
      7          1           0        3.000143    0.000000    0.000000
      8          1           0        1.755143    2.153000    0.000000
      9          1           0       -0.750857    2.146000    0.000000
     10          1           0       -0.750857   -2.146000    0.000000
     11          1           0        1.755143   -2.153000    0.000000
     12          7           0       -2.332857    0.000000    0.000000
     13          8           0       -2.898857   -1.091000    0.000000
     14          8           0       -2.898857    1.091000    0.000000
     15          6           0       -6.441313   -2.562743    5.240859
     16          6           0       -6.667348   -1.490767    6.307517
     17          6           0       -8.061429   -1.562291    6.931390
     18          1           0       -7.201992   -2.455613    4.455470
     19          1           0       -6.592804   -3.554264    5.689560
     20          1           0       -6.514121   -0.501616    5.857276
     21          1           0       -5.905926   -1.600342    7.090361
     22          1           0       -8.221529   -2.535712    7.406174
     23          1           0       -8.833180   -1.430744    6.166082
     24          1           0       -8.201488   -0.787094    7.691201
     25          6           0       -5.052187   -2.504147    4.607911
     26          6           0       -4.826152   -3.576123    3.541252
     27          6           0       -3.432071   -3.504599    2.917380
     28          1           0       -4.900696   -1.512626    4.159210
     29          1           0       -4.291508   -2.611277    5.393300
     30          1           0       -5.587574   -3.466548    2.758408
     31          1           0       -4.979379   -4.565274    3.991494
     32          1           0       -2.660320   -3.636146    3.682687
     33          1           0       -3.271971   -2.531178    2.442596
     34          1           0       -3.292012   -4.279796    2.157568
 ---------------------------------------------------------------------
                    Distance matrix (angstroms):
                    1          2          3          4          5
     1  C    0.000000
     2  C    1.398757   0.000000
     3  C    2.428443   1.398052   0.000000
     4  C    2.767000   2.395623   1.394019   0.000000
     5  C    2.428443   2.806913   2.446000   1.394019   0.000000
     6  C    1.398757   2.422000   2.806913   2.395623   1.398052
     7  H    1.086000   2.157850   3.410804   3.853000   3.410804
     8  H    2.158863   1.086299   2.150493   3.381874   3.893212
     9  H    3.421628   2.176109   1.083244   2.148423   3.416380
    10  H    3.421628   3.889817   3.416380   2.148423   1.083244
    11  H    2.158863   3.407224   3.893212   3.381874   2.150493
    12  N    4.247000   3.748030   2.472636   1.480000   2.472636
    13  O    4.935104   4.713382   3.567327   2.318706   2.718207
    14  O    4.935104   4.114750   2.718207   2.318706   3.567327
    15  C   10.190579  10.015675   8.997456   8.078682   8.271473
    16  C   10.754029  10.449986   9.443779   8.707208   9.049427
    17  C   12.247324  11.906786  10.856250  10.121681  10.498354
    18  H   10.439596  10.204244   9.090524   8.135894   8.403854
    19  H   10.833837  10.771595   9.811623   8.828979   8.881469
    20  H   10.275940   9.847172   8.795125   8.161447   8.654497
    21  H   10.676507  10.434186   9.538687   8.852560   9.119083
    22  H   12.806760  12.566669  11.557833  10.750748  11.008124
    23  H   12.472872  12.080897  10.948685  10.185929  10.624242
    24  H   12.731853  12.320757  11.290592  10.666605  11.118768
    25  C    8.719710   8.619864   7.669753   6.718480   6.824575
    26  C    8.411938   8.481873   7.557973   6.412191   6.295122
    27  C    7.026758   7.234313   6.435231   5.238861   4.926225
    28  H    8.125829   7.880890   6.857933   5.997672   6.295354
    29  H    8.626503   8.602888   7.788592   6.908746   6.920101
    30  H    8.712148   8.703541   7.668170   6.484082   6.468576
    31  H    9.181198   9.362536   8.510768   7.334980   7.078125
    32  H    6.907203   7.215849   6.580756   5.481849   5.051567
    33  H    6.266491   6.332092   5.440273   4.269104   4.148982
    34  H    7.076426   7.423569   6.678060   5.377846   4.864127
                    6          7          8          9         10
     6  C    0.000000
     7  H    2.157850   0.000000
     8  H    3.407224   2.487053   0.000000
     9  H    3.889817   4.321495   2.506010   0.000000
    10  H    2.176109   4.321495   4.976087   4.292000   0.000000
    11  H    1.086299   2.487053   4.306000   4.976087   2.506010
    12  N    3.748030   5.333000   4.620298   2.666091   2.666091
    13  O    4.114750   5.999040   5.673028   3.884852   2.393100
    14  O    4.713382   5.999040   4.773632   2.393100   3.884852
    15  C    9.375490  11.098439  10.811416   9.056498   7.747359
    16  C   10.098561  11.639052  11.135536   9.381669   8.672887
    17  C   11.584637  13.146988  12.578261  10.734992  10.091053
    18  H    9.603729  11.400211  11.014572   9.090830   7.846287
    19  H    9.940342  11.705918  11.603111   9.949495   8.275424
    20  H    9.723013  11.183940  10.475466   8.633236   8.380149
    21  H   10.055853  11.495755  11.092915   9.533259   8.783262
    22  H   12.068065  13.682367  13.280415  11.514373  10.526834
    23  H   11.790571  13.419953  12.766220  10.776716  10.190981
    24  H   12.165047  13.610681  12.920264  11.102681  10.794123
    25  C    7.884920   9.609558   9.447836   7.833144   6.313680
    26  C    7.390496   9.304838   9.416834   7.867095   5.585136
    27  C    5.946344   7.884586   8.211378   6.901397   4.188771
    28  H    7.401436   9.055955   8.662334   6.921397   5.909429
    29  H    7.833304   9.437936   9.399362   8.015958   6.468414
    30  H    7.678520   9.663056   9.649022   7.905905   5.722455
    31  H    8.095857  10.022301  10.316056   8.879956   6.298040
    32  H    5.869836   7.669719   8.159210   7.116280   4.407808
    33  H    5.275828   7.191144   7.292440   5.847930   3.531381
    34  H    5.863279   7.909676   8.456343   7.239021   3.957986
                   11         12         13         14         15
    11  H    0.000000
    12  N    4.620298   0.000000
    13  O    4.773632   1.229080   0.000000
    14  O    5.673028   1.229080   2.182000   0.000000
    15  C    9.737370   7.135381   6.494738   7.305165   0.000000
    16  C   10.543324   7.797113   7.358404   7.787928   1.529047
    17  C   12.031550   9.126963   8.655543   9.040811   2.546287
    18  H   10.008649   7.041997   6.342740   7.137692   1.098611
    19  H   10.199159   7.946762   7.216925   8.221607   1.098816
    20  H   10.267204   7.214033   6.908342   7.065001   2.152560
    21  H   10.453259   8.099453   7.718492   8.158370   2.152560
    22  H   12.431085   9.795800   9.234146   9.815054   2.803300
    23  H   12.274152   9.073136   8.564589   8.921656   2.803299
    24  H   12.655227   9.706437   9.346915   9.528888   3.500760
    25  C    8.227751   5.907483   5.278888   6.228544   1.527654
    26  C    7.607837   5.616551   4.736113   6.167412   2.554280
    27  C    6.102878   4.690585   3.823726   5.469456   3.916782
    28  H    7.874598   5.116724   4.635100   5.299552   2.155507
    29  H    8.115398   6.304186   5.773942   6.688349   2.155749
    30  H    7.952969   5.497177   4.525621   5.967349   2.776382
    31  H    8.191757   6.616482   5.686051   7.228695   2.776382
    32  H    5.937863   5.185651   4.482951   5.997082   4.228002
    33  H    5.601890   3.640752   2.860000   4.384708   4.228002
    34  H    5.886606   4.887917   3.870154   5.801303   4.730016
                   16         17         18         19         20
    16  C    0.000000
    17  C    1.528985   0.000000
    18  H    2.155655   2.768905   0.000000
    19  H    2.155330   2.768927   1.761000   0.000000
    20  H    1.097550   2.161692   2.501266   3.058264   0.000000
    21  H    1.097549   2.161692   3.058419   2.500371   1.760000
    22  H    2.171275   1.094806   3.122903   2.576229   3.074390
    23  H    2.171275   1.094806   2.576300   3.123411   2.517275
    24  H    2.182504   1.094468   3.775302   3.775137   2.508383
    25  C    2.554280   3.916782   2.155749   2.155507   2.776382
    26  C    3.923128   5.100546   2.781358   2.781504   4.203070
    27  C    5.100546   6.427736   4.204569   4.204484   5.211519
    28  H    2.781503   4.204484   2.504587   3.061615   2.551217
    29  H    2.781358   4.204569   3.061809   2.504587   3.099347
    30  H    4.203070   5.211519   2.551148   3.099973   4.387744
    31  H    4.203070   5.211519   3.099347   2.551217   4.727567
    32  H    5.248681   6.635279   4.755800   4.415730   5.422721
    33  H    5.248681   6.635279   4.416156   4.755777   5.127446
    34  H    6.032715   7.274720   4.888347   4.888414   6.192291
                   21         22         23         24         25
    21  H    0.000000
    22  H    2.517275   0.000000
    23  H    3.074390   1.770000   0.000000
    24  H    2.508383   1.771809   1.771809   0.000000
    25  C    2.776381   4.228002   4.228002   4.730015   0.000000
    26  C    4.203070   5.248682   5.248681   6.032715   1.529047
    27  C    5.211518   6.635279   6.635278   7.274719   2.546287
    28  H    3.099972   4.755777   4.415730   4.888413   1.098816
    29  H    2.551147   4.416156   4.755800   4.888347   1.098611
    30  H    4.727567   5.422721   5.127446   6.192291   2.152560
    31  H    4.387743   5.127446   5.422720   6.192291   2.152560
    32  H    5.127446   6.782504   7.009654   7.408767   2.803300
    33  H    5.422720   7.009654   6.782503   7.408767   2.803300
    34  H    6.192291   7.408767   7.408767   8.180649   3.500761
                   26         27         28         29         30
    26  C    0.000000
    27  C    1.528985   0.000000
    28  H    2.155330   2.768927   0.000000
    29  H    2.155656   2.768905   1.761000   0.000000
    30  H    1.097549   2.161692   2.500372   3.058420   0.000000
    31  H    1.097550   2.161692   3.058264   2.501266   1.760000
    32  H    2.171275   1.094805   3.123411   2.576301   3.074390
    33  H    2.171275   1.094806   2.576229   3.122903   2.517275
    34  H    2.182504   1.094468   3.775138   3.775303   2.508383
                   31         32         33         34
    31  H    0.000000
    32  H    2.517275   0.000000
    33  H    3.074390   1.769999   0.000000
    34  H    2.508384   1.771809   1.771809   0.000000
 Stoichiometry    C12H19NO2
 Framework group  C1[X(C12H19NO2)]
 Deg. of freedom    96
 Full point group                 C1      NOp   1
 Largest Abelian subgroup         C1      NOp   1
 Largest concise Abelian subgroup C1      NOp   1
                         Standard orientation:                         
 ---------------------------------------------------------------------
 Center     Atomic      Atomic             Coordinates (Angstroms)
 Number     Number       Type             X           Y           Z
 ---------------------------------------------------------------------
      1          6           0        5.156289    0.596543   -1.330909
      2          6           0        4.953555   -0.784045   -1.233978
      3          6           0        3.926376   -1.296535   -0.435977
      4          6           0        3.117097   -0.395651    0.254504
      5          6           0        3.293881    0.985015    0.178349
      6          6           0        4.327266    1.475118   -0.625680
      7          1           0        5.956637    0.985962   -1.953156
      8          1           0        5.595841   -1.468720   -1.780544
      9          1           0        3.747188   -2.360795   -0.342918
     10          1           0        2.637347    1.642644    0.735040
     11          1           0        4.482380    2.547778   -0.699069
     12          7           0        2.026383   -0.926351    1.102503
     13          8           0        1.327144   -0.111658    1.700815
     14          8           0        1.891373   -2.146957    1.152794
     15          6           0       -4.937068    0.184436    0.011556
     16          6           0       -5.492591   -0.857126   -0.960311
     17          6           0       -6.928095   -1.267261   -0.630289
     18          1           0       -4.979480   -0.217263    1.033214
     19          1           0       -5.585321    1.071544   -0.002670
     20          1           0       -4.842710   -1.741459   -0.945284
     21          1           0       -5.448675   -0.452974   -1.979795
     22          1           0       -7.594301   -0.399159   -0.664476
     23          1           0       -6.984893   -1.694964    0.375914
     24          1           0       -7.305369   -2.012501   -1.337496
     25          6           0       -3.502892    0.604518   -0.305301
     26          6           0       -2.947368    1.646080    0.666567
     27          6           0       -1.511866    2.056214    0.336544
     28          1           0       -2.854639   -0.282591   -0.291075
     29          1           0       -3.460480    1.006216   -1.326958
     30          1           0       -2.991285    1.241928    1.686051
     31          1           0       -3.597250    2.530412    0.651539
     32          1           0       -1.455067    2.483917   -0.669658
     33          1           0       -0.845659    1.188113    0.370731
     34          1           0       -1.134590    2.801454    1.043752
 ---------------------------------------------------------------------
 Rotational constants (GHZ):           0.9976761           0.1435418           0.1376879
 Leave Link  202 at Thu May  6 20:45:13 2021, MaxMem=   524288000 cpu:               0.0 elap:               0.0
 (Enter /opt/gaussian/g16_legacy/l301.exe)
 Standard basis: 6-31G(d) (6D, 7F)
 Ernie: Thresh=  0.10000D-02 Tol=  0.10000D-05 Strict=F.
 There are   263 symmetry adapted cartesian basis functions of A   symmetry.
 There are   263 symmetry adapted basis functions of A   symmetry.
   263 basis functions,   496 primitive gaussians,   263 cartesian basis functions
    57 alpha electrons       57 beta electrons
       nuclear repulsion energy       886.0778204878 Hartrees.
 IExCor=    0 DFT=F Ex=HF Corr=None ExCW=0 ScaHFX=  1.000000
 ScaDFX=  1.000000  1.000000  1.000000  1.000000 ScalE2=  1.000000  1.000000
 IRadAn=      5 IRanWt=     -1 IRanGd=            0 ICorTp=0 IEmpDi=  4
 NAtoms=   34 NActive=   34 NUniq=   34 SFac= 1.00D+00 NAtFMM=   60 NAOKFM=F Big=F
 Integral buffers will be    131072 words long.
 Raffenetti 1 integral format.
 Two-electron integral symmetry is turned on.
 Leave Link  301 at Thu May  6 20:45:13 2021, MaxMem=   524288000 cpu:               0.0 elap:               0.0
 (Enter /opt/gaussian/g16_legacy/l302.exe)
 NPDir=0 NMtPBC=     1 NCelOv=     1 NCel=       1 NClECP=     1 NCelD=      1
         NCelK=      1 NCelE2=     1 NClLst=     1 CellRange=     0.0.
 One-electron integrals computed using PRISM.
 One-electron integral symmetry used in STVInt
 NBasis=   263 RedAO= T EigKep=  4.81D-04  NBF=   263
 NBsUse=   263 1.00D-06 EigRej= -1.00D+00 NBFU=   263
 Leave Link  302 at Thu May  6 20:45:13 2021, MaxMem=   524288000 cpu:               0.3 elap:               0.1
 (Enter /opt/gaussian/g16_legacy/l303.exe)
 DipDrv:  MaxL=1.
 Leave Link  303 at Thu May  6 20:45:14 2021, MaxMem=   524288000 cpu:               0.0 elap:               0.0
 (Enter /opt/gaussian/g16_legacy/l401.exe)
 ExpMin= 1.61D-01 ExpMax= 5.48D+03 ExpMxC= 8.25D+02 IAcc=3 IRadAn=         5 AccDes= 0.00D+00
 Harris functional with IExCor=  205 and IRadAn=       5 diagonalized for initial guess.
 HarFok:  IExCor=  205 AccDes= 0.00D+00 IRadAn=         5 IDoV= 1 UseB2=F ITyADJ=14
 ICtDFT=  3500011 ScaDFX=  1.000000  1.000000  1.000000  1.000000
 FoFCou: FMM=F IPFlag=           0 FMFlag=      100000 FMFlg1=           0
         NFxFlg=           0 DoJE=T BraDBF=F KetDBF=T FulRan=T
         wScrn=  0.000000 ICntrl=       500 IOpCl=  0 I1Cent=   200000004 NGrid=           0
         NMat0=    1 NMatS0=      1 NMatT0=    0 NMatD0=    1 NMtDS0=    0 NMtDT0=    0
 Petite list used in FoFCou.
 Harris En= -670.657898932354    
 JPrj=0 DoOrth=F DoCkMO=F.
 Leave Link  401 at Thu May  6 20:45:17 2021, MaxMem=   524288000 cpu:               7.0 elap:               3.5
 (Enter /opt/gaussian/g16_legacy/l502.exe)
 Integral symmetry usage will be decided dynamically.
 Closed shell SCF:
 Using DIIS extrapolation, IDIIS=  1040.
 NGot=   524288000 LenX=   524144919 LenY=   524075309
 Requested convergence on RMS density matrix=1.00D-08 within 128 cycles.
 Requested convergence on MAX density matrix=1.00D-06.
 Requested convergence on             energy=1.00D-06.
 No special actions if energy rises.
 Fock matrices will be formed incrementally for  20 cycles.
 Integral accuracy reduced to 1.0D-05 until final iterations.

 Cycle   1  Pass 0  IDiag  1:
 FoFJK:  IHMeth= 1 ICntrl=       0 DoSepK=F KAlg= 0 I1Cent=           0 FoldK=F
 IRaf= 680000000 NMat=       1 IRICut=       1 DoRegI=T DoRafI=F ISym2E= 0 IDoP0=0 IntGTp=1.
 FoFCou: FMM=F IPFlag=           0 FMFlag=      100000 FMFlg1=           0
         NFxFlg=           0 DoJE=F BraDBF=F KetDBF=F FulRan=T
         wScrn=  0.000000 ICntrl=         0 IOpCl=  0 I1Cent=           0 NGrid=           0
         NMat0=    1 NMatS0=      1 NMatT0=    0 NMatD0=    1 NMtDS0=    0 NMtDT0=    0
 Symmetry not used in FoFCou.
 E= -668.738309045814    
 DIIS: error= 6.43D-02 at cycle   1 NSaved=   1.
 NSaved= 1 IEnMin= 1 EnMin= -668.738309045814     IErMin= 1 ErrMin= 6.43D-02
 ErrMax= 6.43D-02  0.00D+00 EMaxC= 1.00D-01 BMatC= 1.18D+00 BMatP= 1.18D+00
 IDIUse=3 WtCom= 3.57D-01 WtEn= 6.43D-01
 Coeff-Com:  0.100D+01
 Coeff-En:   0.100D+01
 Coeff:      0.100D+01
 Gap=     0.556 Goal=   None    Shift=    0.000
 GapD=    0.556 DampG=2.000 DampE=0.500 DampFc=1.0000 IDamp=-1.
 RMSDP=4.60D-03 MaxDP=1.18D-01              OVMax= 1.52D-01

 Cycle   2  Pass 0  IDiag  1:
 RMSU=  4.48D-03    CP:  9.48D-01
 E= -669.358019773243     Delta-E=       -0.619710727429 Rises=F Damp=F
 DIIS: error= 2.86D-02 at cycle   2 NSaved=   2.
 NSaved= 2 IEnMin= 2 EnMin= -669.358019773243     IErMin= 2 ErrMin= 2.86D-02
 ErrMax= 2.86D-02  0.00D+00 EMaxC= 1.00D-01 BMatC= 2.19D-01 BMatP= 1.18D+00
 IDIUse=3 WtCom= 7.14D-01 WtEn= 2.86D-01
 Coeff-Com:  0.247D+00 0.753D+00
 Coeff-En:   0.000D+00 0.100D+01
 Coeff:      0.176D+00 0.824D+00
 Gap=     0.559 Goal=   None    Shift=    0.000
 RMSDP=1.82D-03 MaxDP=8.01D-02 DE=-6.20D-01 OVMax= 1.22D-01

 Cycle   3  Pass 0  IDiag  1:
 RMSU=  1.44D-03    CP:  9.57D-01  7.54D-01
 E= -669.507976780556     Delta-E=       -0.149957007313 Rises=F Damp=F
 DIIS: error= 1.36D-02 at cycle   3 NSaved=   3.
 NSaved= 3 IEnMin= 3 EnMin= -669.507976780556     IErMin= 3 ErrMin= 1.36D-02
 ErrMax= 1.36D-02  0.00D+00 EMaxC= 1.00D-01 BMatC= 3.65D-02 BMatP= 2.19D-01
 IDIUse=3 WtCom= 8.64D-01 WtEn= 1.36D-01
 Coeff-Com: -0.940D-02 0.269D+00 0.740D+00
 Coeff-En:   0.000D+00 0.000D+00 0.100D+01
 Coeff:     -0.812D-02 0.233D+00 0.775D+00
 Gap=     0.425 Goal=   None    Shift=    0.000
 RMSDP=5.99D-04 MaxDP=3.27D-02 DE=-1.50D-01 OVMax= 5.04D-02

 Cycle   4  Pass 0  IDiag  1:
 RMSU=  3.99D-04    CP:  9.56D-01  8.31D-01  8.06D-01
 E= -669.533766798378     Delta-E=       -0.025790017822 Rises=F Damp=F
 DIIS: error= 4.48D-03 at cycle   4 NSaved=   4.
 NSaved= 4 IEnMin= 4 EnMin= -669.533766798378     IErMin= 4 ErrMin= 4.48D-03
 ErrMax= 4.48D-03  0.00D+00 EMaxC= 1.00D-01 BMatC= 2.92D-03 BMatP= 3.65D-02
 IDIUse=3 WtCom= 9.55D-01 WtEn= 4.48D-02
 Coeff-Com: -0.133D-01 0.439D-01 0.291D+00 0.678D+00
 Coeff-En:   0.000D+00 0.000D+00 0.000D+00 0.100D+01
 Coeff:     -0.127D-01 0.420D-01 0.278D+00 0.692D+00
 Gap=     0.411 Goal=   None    Shift=    0.000
 RMSDP=1.72D-04 MaxDP=7.71D-03 DE=-2.58D-02 OVMax= 1.44D-02

 Cycle   5  Pass 0  IDiag  1:
 RMSU=  9.75D-05    CP:  9.55D-01  8.34D-01  8.78D-01  7.62D-01
 E= -669.536130555396     Delta-E=       -0.002363757019 Rises=F Damp=F
 DIIS: error= 5.29D-04 at cycle   5 NSaved=   5.
 NSaved= 5 IEnMin= 5 EnMin= -669.536130555396     IErMin= 5 ErrMin= 5.29D-04
 ErrMax= 5.29D-04  0.00D+00 EMaxC= 1.00D-01 BMatC= 6.04D-05 BMatP= 2.92D-03
 IDIUse=3 WtCom= 9.95D-01 WtEn= 5.29D-03
 Coeff-Com:  0.203D-02-0.195D-01-0.764D-01-0.312D-01 0.113D+01
 Coeff-En:   0.000D+00 0.000D+00 0.000D+00 0.000D+00 0.100D+01
 Coeff:      0.202D-02-0.194D-01-0.760D-01-0.310D-01 0.112D+01
 Gap=     0.413 Goal=   None    Shift=    0.000
 RMSDP=5.32D-05 MaxDP=1.30D-03 DE=-2.36D-03 OVMax= 4.74D-03

 Cycle   6  Pass 0  IDiag  1:
 RMSU=  2.47D-05    CP:  9.55D-01  8.36D-01  8.91D-01  8.47D-01  1.25D+00
 E= -669.536241733181     Delta-E=       -0.000111177785 Rises=F Damp=F
 DIIS: error= 2.72D-04 at cycle   6 NSaved=   6.
 NSaved= 6 IEnMin= 6 EnMin= -669.536241733181     IErMin= 6 ErrMin= 2.72D-04
 ErrMax= 2.72D-04  0.00D+00 EMaxC= 1.00D-01 BMatC= 5.91D-06 BMatP= 6.04D-05
 IDIUse=3 WtCom= 9.97D-01 WtEn= 2.72D-03
 Coeff-Com:  0.126D-02-0.666D-02-0.341D-01-0.523D-01 0.142D+00 0.950D+00
 Coeff-En:   0.000D+00 0.000D+00 0.000D+00 0.000D+00 0.000D+00 0.100D+01
 Coeff:      0.126D-02-0.664D-02-0.340D-01-0.522D-01 0.142D+00 0.950D+00
 Gap=     0.413 Goal=   None    Shift=    0.000
 RMSDP=1.74D-05 MaxDP=5.26D-04 DE=-1.11D-04 OVMax= 1.68D-03

 Cycle   7  Pass 0  IDiag  1:
 RMSU=  8.81D-06    CP:  9.55D-01  8.36D-01  8.94D-01  8.59D-01  1.38D+00
                    CP:  1.18D+00
 E= -669.536256832356     Delta-E=       -0.000015099175 Rises=F Damp=F
 DIIS: error= 1.13D-04 at cycle   7 NSaved=   7.
 NSaved= 7 IEnMin= 7 EnMin= -669.536256832356     IErMin= 7 ErrMin= 1.13D-04
 ErrMax= 1.13D-04  0.00D+00 EMaxC= 1.00D-01 BMatC= 1.17D-06 BMatP= 5.91D-06
 IDIUse=3 WtCom= 9.99D-01 WtEn= 1.13D-03
 Coeff-Com: -0.242D-03 0.239D-02 0.923D-02 0.505D-02-0.151D+00 0.196D-01
 Coeff-Com:  0.111D+01
 Coeff-En:   0.000D+00 0.000D+00 0.000D+00 0.000D+00 0.000D+00 0.000D+00
 Coeff-En:   0.100D+01
 Coeff:     -0.241D-03 0.239D-02 0.921D-02 0.504D-02-0.151D+00 0.196D-01
 Coeff:      0.111D+01
 Gap=     0.413 Goal=   None    Shift=    0.000
 RMSDP=8.90D-06 MaxDP=3.26D-04 DE=-1.51D-05 OVMax= 1.34D-03

 Initial convergence to 1.0D-05 achieved.  Increase integral accuracy.
 Cycle   8  Pass 1  IDiag  1:
 E= -669.536260886578     Delta-E=       -0.000004054222 Rises=F Damp=F
 DIIS: error= 8.66D-05 at cycle   1 NSaved=   1.
 NSaved= 1 IEnMin= 1 EnMin= -669.536260886578     IErMin= 1 ErrMin= 8.66D-05
 ErrMax= 8.66D-05  0.00D+00 EMaxC= 1.00D-01 BMatC= 3.44D-07 BMatP= 3.44D-07
 IDIUse=1 WtCom= 1.00D+00 WtEn= 0.00D+00
 Coeff-Com:  0.100D+01
 Coeff:      0.100D+01
 Gap=     0.413 Goal=   None    Shift=    0.000
 RMSDP=8.90D-06 MaxDP=3.26D-04 DE=-4.05D-06 OVMax= 5.28D-04

 Cycle   9  Pass 1  IDiag  1:
 RMSU=  6.38D-06    CP:  1.00D+00
 E= -669.536261878828     Delta-E=       -0.000000992250 Rises=F Damp=F
 DIIS: error= 4.06D-05 at cycle   2 NSaved=   2.
 NSaved= 2 IEnMin= 2 EnMin= -669.536261878828     IErMin= 2 ErrMin= 4.06D-05
 ErrMax= 4.06D-05  0.00D+00 EMaxC= 1.00D-01 BMatC= 1.34D-07 BMatP= 3.44D-07
 IDIUse=1 WtCom= 1.00D+00 WtEn= 0.00D+00
 Coeff-Com:  0.121D+00 0.879D+00
 Coeff:      0.121D+00 0.879D+00
 Gap=     0.413 Goal=   None    Shift=    0.000
 RMSDP=2.11D-06 MaxDP=6.19D-05 DE=-9.92D-07 OVMax= 3.36D-04

 Cycle  10  Pass 1  IDiag  1:
 RMSU=  1.90D-06    CP:  1.00D+00  1.14D+00
 E= -669.536262264994     Delta-E=       -0.000000386166 Rises=F Damp=F
 DIIS: error= 3.84D-05 at cycle   3 NSaved=   3.
 NSaved= 3 IEnMin= 3 EnMin= -669.536262264994     IErMin= 3 ErrMin= 3.84D-05
 ErrMax= 3.84D-05  0.00D+00 EMaxC= 1.00D-01 BMatC= 6.27D-08 BMatP= 1.34D-07
 IDIUse=1 WtCom= 1.00D+00 WtEn= 0.00D+00
 Coeff-Com: -0.478D+00 0.130D+00 0.135D+01
 Coeff:     -0.478D+00 0.130D+00 0.135D+01
 Gap=     0.413 Goal=   None    Shift=    0.000
 RMSDP=2.90D-06 MaxDP=8.23D-05 DE=-3.86D-07 OVMax= 4.09D-04

 Cycle  11  Pass 1  IDiag  1:
 RMSU=  1.63D-06    CP:  1.00D+00  1.40D+00  1.91D+00
 E= -669.536262592047     Delta-E=       -0.000000327053 Rises=F Damp=F
 DIIS: error= 1.25D-05 at cycle   4 NSaved=   4.
 NSaved= 4 IEnMin= 4 EnMin= -669.536262592047     IErMin= 4 ErrMin= 1.25D-05
 ErrMax= 1.25D-05  0.00D+00 EMaxC= 1.00D-01 BMatC= 8.45D-09 BMatP= 6.27D-08
 IDIUse=1 WtCom= 1.00D+00 WtEn= 0.00D+00
 Coeff-Com: -0.108D+00-0.181D+00 0.211D+00 0.108D+01
 Coeff:     -0.108D+00-0.181D+00 0.211D+00 0.108D+01
 Gap=     0.413 Goal=   None    Shift=    0.000
 RMSDP=1.24D-06 MaxDP=3.63D-05 DE=-3.27D-07 OVMax= 1.76D-04

 Cycle  12  Pass 1  IDiag  1:
 RMSU=  3.33D-07    CP:  1.00D+00  1.49D+00  2.39D+00  1.33D+00
 E= -669.536262633525     Delta-E=       -0.000000041478 Rises=F Damp=F
 DIIS: error= 2.89D-06 at cycle   5 NSaved=   5.
 NSaved= 5 IEnMin= 5 EnMin= -669.536262633525     IErMin= 5 ErrMin= 2.89D-06
 ErrMax= 2.89D-06  0.00D+00 EMaxC= 1.00D-01 BMatC= 1.29D-09 BMatP= 8.45D-09
 IDIUse=1 WtCom= 1.00D+00 WtEn= 0.00D+00
 Coeff-Com:  0.269D-01-0.853D-01-0.106D+00 0.404D+00 0.761D+00
 Coeff:      0.269D-01-0.853D-01-0.106D+00 0.404D+00 0.761D+00
 Gap=     0.413 Goal=   None    Shift=    0.000
 RMSDP=2.51D-07 MaxDP=7.17D-06 DE=-4.15D-08 OVMax= 4.17D-05

 Cycle  13  Pass 1  IDiag  1:
 RMSU=  9.62D-08    CP:  1.00D+00  1.50D+00  2.48D+00  1.42D+00  8.45D-01
 E= -669.536262635834     Delta-E=       -0.000000002309 Rises=F Damp=F
 DIIS: error= 6.73D-07 at cycle   6 NSaved=   6.
 NSaved= 6 IEnMin= 6 EnMin= -669.536262635834     IErMin= 6 ErrMin= 6.73D-07
 ErrMax= 6.73D-07  0.00D+00 EMaxC= 1.00D-01 BMatC= 4.33D-11 BMatP= 1.29D-09
 IDIUse=1 WtCom= 1.00D+00 WtEn= 0.00D+00
 Coeff-Com:  0.170D-02 0.252D-01 0.799D-02-0.135D+00-0.159D+00 0.126D+01
 Coeff:      0.170D-02 0.252D-01 0.799D-02-0.135D+00-0.159D+00 0.126D+01
 Gap=     0.413 Goal=   None    Shift=    0.000
 RMSDP=5.73D-08 MaxDP=1.82D-06 DE=-2.31D-09 OVMax= 5.82D-06

 Cycle  14  Pass 1  IDiag  1:
 RMSU=  2.66D-08    CP:  1.00D+00  1.50D+00  2.49D+00  1.43D+00  9.13D-01
                    CP:  1.38D+00
 E= -669.536262635981     Delta-E=       -0.000000000148 Rises=F Damp=F
 DIIS: error= 2.80D-07 at cycle   7 NSaved=   7.
 NSaved= 7 IEnMin= 7 EnMin= -669.536262635981     IErMin= 7 ErrMin= 2.80D-07
 ErrMax= 2.80D-07  0.00D+00 EMaxC= 1.00D-01 BMatC= 6.92D-12 BMatP= 4.33D-11
 IDIUse=1 WtCom= 1.00D+00 WtEn= 0.00D+00
 Coeff-Com: -0.298D-02 0.146D-01 0.145D-01-0.737D-01-0.131D+00 0.247D+00
 Coeff-Com:  0.932D+00
 Coeff:     -0.298D-02 0.146D-01 0.145D-01-0.737D-01-0.131D+00 0.247D+00
 Coeff:      0.932D+00
 Gap=     0.413 Goal=   None    Shift=    0.000
 RMSDP=1.87D-08 MaxDP=8.16D-07 DE=-1.48D-10 OVMax= 2.27D-06

 Cycle  15  Pass 1  IDiag  1:
 RMSU=  9.70D-09    CP:  1.00D+00  1.50D+00  2.50D+00  1.43D+00  9.20D-01
                    CP:  1.50D+00  1.11D+00
 E= -669.536262635997     Delta-E=       -0.000000000016 Rises=F Damp=F
 DIIS: error= 8.12D-08 at cycle   8 NSaved=   8.
 NSaved= 8 IEnMin= 8 EnMin= -669.536262635997     IErMin= 8 ErrMin= 8.12D-08
 ErrMax= 8.12D-08  0.00D+00 EMaxC= 1.00D-01 BMatC= 1.22D-12 BMatP= 6.92D-12
 IDIUse=1 WtCom= 1.00D+00 WtEn= 0.00D+00
 Coeff-Com: -0.481D-03-0.184D-02 0.931D-03 0.984D-02 0.102D-02-0.126D+00
 Coeff-Com:  0.122D+00 0.995D+00
 Coeff:     -0.481D-03-0.184D-02 0.931D-03 0.984D-02 0.102D-02-0.126D+00
 Coeff:      0.122D+00 0.995D+00
 Gap=     0.413 Goal=   None    Shift=    0.000
 RMSDP=6.56D-09 MaxDP=3.56D-07 DE=-1.57D-11 OVMax= 5.51D-07

 SCF Done:  E(RHF) =  -669.536262636     A.U. after   15 cycles
            NFock= 15  Conv=0.66D-08     -V/T= 2.0024
 KE= 6.679559263916D+02 PE=-3.335546657601D+03 EE= 1.111976648085D+03
 Leave Link  502 at Thu May  6 20:45:41 2021, MaxMem=   524288000 cpu:              47.2 elap:              23.8
 (Enter /opt/gaussian/g16_legacy/l801.exe)
 ExpMin= 1.61D-01 ExpMax= 5.48D+03 ExpMxC= 8.25D+02 IAcc=3 IRadAn=         5 AccDes= 0.00D+00
 HarFok:  IExCor=  205 AccDes= 0.00D+00 IRadAn=         5 IDoV=-2 UseB2=F ITyADJ=14
 ICtDFT= 12500011 ScaDFX=  1.000000  1.000000  1.000000  1.000000
 Largest valence mixing into a core orbital is  1.97D-04
 Largest core mixing into a valence orbital is  4.00D-05
 Range of M.O.s used for correlation:    16   263
 NBasis=   263 NAE=    57 NBE=    57 NFC=    15 NFV=     0
 NROrb=    248 NOA=    42 NOB=    42 NVA=   206 NVB=   206
 Leave Link  801 at Thu May  6 20:45:42 2021, MaxMem=   524288000 cpu:               1.1 elap:               0.7
 (Enter /opt/gaussian/g16_legacy/l906.exe)
 FulOut=F Deriv=F AODrv=F NAtomX=    34
   MMem=         113  MDisk=          42 MDiskD=          42
  W3Min=     2275476 MinDsk=     2420380 NBas6D=         263
 NBas2D=       35121    NTT=       34716    LW2=     2000000
    MDV=   523960412 MDiskM=       27564 NBas2p=       22123
 Fully direct method using O(OVN) memory.
 IMap=   1   2   3   4   5   6   7   8   9  10  11  12  13  14  15  16  17  18  19  20
 IMap=  21  22  23  24  25  26  27  28  29  30  31  32  33  34  35  36  37  38  39  40
 IMap=  41  42
 JobTyp=1 Pass  1:  I=   1 to  42 NPSUse=  2 ParTrn=T ParDer=T DoDerP=F.
 Spin components of T(2) and E(2):
     alpha-alpha T2 =       0.9484465260D-01 E2=     -0.2717746293D+00
     alpha-beta  T2 =       0.5258347472D+00 E2=     -0.1547290360D+01
     beta-beta   T2 =       0.9484465260D-01 E2=     -0.2717746293D+00
 The integrals were generated   1 times.
 ANorm=    0.1309780154D+01
 E2 =    -0.2090839619D+01 EUMP2 =    -0.67162710225465D+03
 Leave Link  906 at Thu May  6 20:46:45 2021, MaxMem=   524288000 cpu:             125.7 elap:              63.4
 (Enter /opt/gaussian/g16_legacy/l601.exe)
 Copying SCF densities to generalized density rwf, IOpCl= 0 IROHF=0.

 **********************************************************************

            Population analysis using the SCF density.

 **********************************************************************

 Orbital symmetries:
       Occupied  (A) (A) (A) (A) (A) (A) (A) (A) (A) (A) (A) (A)
                 (A) (A) (A) (A) (A) (A) (A) (A) (A) (A) (A) (A)
                 (A) (A) (A) (A) (A) (A) (A) (A) (A) (A) (A) (A)
                 (A) (A) (A) (A) (A) (A) (A) (A) (A) (A) (A) (A)
                 (A) (A) (A) (A) (A) (A) (A) (A) (A)
       Virtual   (A) (A) (A) (A) (A) (A) (A) (A) (A) (A) (A) (A)
                 (A) (A) (A) (A) (A) (A) (A) (A) (A) (A) (A) (A)
                 (A) (A) (A) (A) (A) (A) (A) (A) (A) (A) (A) (A)
                 (A) (A) (A) (A) (A) (A) (A) (A) (A) (A) (A) (A)
                 (A) (A) (A) (A) (A) (A) (A) (A) (A) (A) (A) (A)
                 (A) (A) (A) (A) (A) (A) (A) (A) (A) (A) (A) (A)
                 (A) (A) (A) (A) (A) (A) (A) (A) (A) (A) (A) (A)
                 (A) (A) (A) (A) (A) (A) (A) (A) (A) (A) (A) (A)
                 (A) (A) (A) (A) (A) (A) (A) (A) (A) (A) (A) (A)
                 (A) (A) (A) (A) (A) (A) (A) (A) (A) (A) (A) (A)
                 (A) (A) (A) (A) (A) (A) (A) (A) (A) (A) (A) (A)
                 (A) (A) (A) (A) (A) (A) (A) (A) (A) (A) (A) (A)
                 (A) (A) (A) (A) (A) (A) (A) (A) (A) (A) (A) (A)
                 (A) (A) (A) (A) (A) (A) (A) (A) (A) (A) (A) (A)
                 (A) (A) (A) (A) (A) (A) (A) (A) (A) (A) (A) (A)
                 (A) (A) (A) (A) (A) (A) (A) (A) (A) (A) (A) (A)
                 (A) (A) (A) (A) (A) (A) (A) (A) (A) (A) (A) (A)
                 (A) (A)
 The electronic state is 1-A.
 Alpha  occ. eigenvalues --  -20.60938 -20.60932 -15.85958 -11.31256 -11.27824
 Alpha  occ. eigenvalues --  -11.27808 -11.27559 -11.26826 -11.26813 -11.21083
 Alpha  occ. eigenvalues --  -11.20805 -11.20777 -11.20653 -11.20627 -11.20145
 Alpha  occ. eigenvalues --   -1.59997  -1.39553  -1.19426  -1.08837  -1.07767
 Alpha  occ. eigenvalues --   -1.04818  -1.02857  -0.95683  -0.95309  -0.86334
 Alpha  occ. eigenvalues --   -0.86220  -0.82515  -0.78940  -0.77602  -0.77546
 Alpha  occ. eigenvalues --   -0.72185  -0.71308  -0.70536  -0.65083  -0.64823
 Alpha  occ. eigenvalues --   -0.64387  -0.62165  -0.60236  -0.58700  -0.56929
 Alpha  occ. eigenvalues --   -0.55328  -0.54579  -0.53152  -0.52911  -0.52021
 Alpha  occ. eigenvalues --   -0.51748  -0.49269  -0.48945  -0.48920  -0.47265
 Alpha  occ. eigenvalues --   -0.45993  -0.45173  -0.45083  -0.44769  -0.43128
 Alpha  occ. eigenvalues --   -0.37406  -0.36418
 Alpha virt. eigenvalues --    0.04922   0.11230   0.16390   0.21318   0.23544
 Alpha virt. eigenvalues --    0.24963   0.27085   0.27344   0.27859   0.28184
 Alpha virt. eigenvalues --    0.28938   0.30827   0.31865   0.32293   0.32683
 Alpha virt. eigenvalues --    0.32890   0.34259   0.34728   0.35169   0.35390
 Alpha virt. eigenvalues --    0.35568   0.36702   0.37035   0.37377   0.40183
 Alpha virt. eigenvalues --    0.41325   0.43421   0.44272   0.45939   0.46235
 Alpha virt. eigenvalues --    0.46491   0.48479   0.49630   0.51093   0.56871
 Alpha virt. eigenvalues --    0.67215   0.68821   0.69708   0.69968   0.70670
 Alpha virt. eigenvalues --    0.71819   0.72346   0.75724   0.76916   0.77851
 Alpha virt. eigenvalues --    0.78444   0.78884   0.79295   0.79347   0.79831
 Alpha virt. eigenvalues --    0.80724   0.81311   0.81849   0.84586   0.85714
 Alpha virt. eigenvalues --    0.87361   0.87762   0.87905   0.88580   0.93585
 Alpha virt. eigenvalues --    0.96393   0.96600   0.97034   0.99160   1.00290
 Alpha virt. eigenvalues --    1.01570   1.02617   1.04191   1.06306   1.06952
 Alpha virt. eigenvalues --    1.08109   1.08470   1.08638   1.09258   1.11498
 Alpha virt. eigenvalues --    1.12358   1.14602   1.15750   1.16448   1.17044
 Alpha virt. eigenvalues --    1.17450   1.17991   1.19220   1.19413   1.19800
 Alpha virt. eigenvalues --    1.21115   1.21612   1.21700   1.22345   1.22521
 Alpha virt. eigenvalues --    1.22961   1.23927   1.24354   1.26058   1.26995
 Alpha virt. eigenvalues --    1.27305   1.27658   1.30503   1.31232   1.34154
 Alpha virt. eigenvalues --    1.39066   1.40410   1.41877   1.46506   1.47242
 Alpha virt. eigenvalues --    1.52976   1.53341   1.56534   1.60242   1.65336
 Alpha virt. eigenvalues --    1.66514   1.67053   1.67142   1.67609   1.68029
 Alpha virt. eigenvalues --    1.71921   1.72547   1.73230   1.73389   1.73405
 Alpha virt. eigenvalues --    1.75462   1.80053   1.81838   1.93408   1.96886
 Alpha virt. eigenvalues --    1.99206   1.99728   2.04410   2.04506   2.05826
 Alpha virt. eigenvalues --    2.09908   2.12387   2.13023   2.13965   2.15404
 Alpha virt. eigenvalues --    2.18497   2.21522   2.21587   2.23100   2.24754
 Alpha virt. eigenvalues --    2.26217   2.26461   2.27081   2.28363   2.32760
 Alpha virt. eigenvalues --    2.33407   2.34632   2.36023   2.36606   2.37604
 Alpha virt. eigenvalues --    2.40246   2.42842   2.43173   2.43773   2.44524
 Alpha virt. eigenvalues --    2.45618   2.46828   2.57424   2.57469   2.58028
 Alpha virt. eigenvalues --    2.58528   2.59474   2.60345   2.67471   2.68380
 Alpha virt. eigenvalues --    2.68509   2.70112   2.77642   2.78259   2.80598
 Alpha virt. eigenvalues --    2.81291   2.83404   2.91641   2.91898   2.92052
 Alpha virt. eigenvalues --    2.92151   2.95610   2.99263   2.99767   3.04680
 Alpha virt. eigenvalues --    3.04713   3.06794   3.10305   3.14444   3.19282
 Alpha virt. eigenvalues --    3.23552   3.24904   3.28032   3.42985   3.52840
 Alpha virt. eigenvalues --    3.76904   4.13408   4.28815   4.38269   4.47877
 Alpha virt. eigenvalues --    4.50617   4.52851   4.56152   4.63352   4.71829
 Alpha virt. eigenvalues --    4.73076   4.76620   4.80679   4.88471   5.00326
 Alpha virt. eigenvalues --    5.08851
          Condensed to atoms (all electrons):
               1          2          3          4          5          6
     1  C    4.875740   0.542504  -0.045785  -0.028545  -0.045730   0.542529
     2  C    0.542504   4.932090   0.523193  -0.040307  -0.030035  -0.043876
     3  C   -0.045785   0.523193   4.918695   0.548587  -0.052985  -0.030030
     4  C   -0.028545  -0.040307   0.548587   4.821131   0.548414  -0.040201
     5  C   -0.045730  -0.030035  -0.052985   0.548414   4.919162   0.522801
     6  C    0.542529  -0.043876  -0.030030  -0.040201   0.522801   4.932235
     7  H    0.381316  -0.027991   0.002171   0.000219   0.002175  -0.027967
     8  H   -0.027666   0.382579  -0.027349   0.001560   0.000204   0.002329
     9  H    0.001927  -0.024031   0.368576  -0.019692   0.002562  -0.000061
    10  H    0.001915  -0.000058   0.002556  -0.019578   0.368244  -0.023943
    11  H   -0.027677   0.002329   0.000204   0.001552  -0.027276   0.382566
    12  N    0.000009   0.001502  -0.044605   0.244106  -0.044512   0.001507
    13  O   -0.000004  -0.000028   0.003686  -0.087466   0.004023   0.000773
    14  O   -0.000004   0.000771   0.003943  -0.087822   0.003697  -0.000028
    15  C   -0.000000   0.000000  -0.000000  -0.000000   0.000000   0.000000
    16  C    0.000000  -0.000000   0.000000   0.000000  -0.000000  -0.000000
    17  C   -0.000000   0.000000   0.000000  -0.000000   0.000000   0.000000
    18  H    0.000000  -0.000000   0.000000  -0.000000  -0.000000  -0.000000
    19  H   -0.000000  -0.000000  -0.000000   0.000000   0.000000  -0.000000
    20  H   -0.000000  -0.000000  -0.000000  -0.000000   0.000000   0.000000
    21  H   -0.000000  -0.000000   0.000000   0.000000   0.000000   0.000000
    22  H    0.000000   0.000000  -0.000000  -0.000000   0.000000   0.000000
    23  H   -0.000000   0.000000   0.000000  -0.000000   0.000000   0.000000
    24  H    0.000000  -0.000000  -0.000000   0.000000  -0.000000  -0.000000
    25  C    0.000000  -0.000000   0.000000   0.000000  -0.000000  -0.000000
    26  C   -0.000000   0.000000  -0.000000  -0.000000   0.000001   0.000000
    27  C    0.000000  -0.000000   0.000000  -0.000006  -0.000016  -0.000000
    28  H    0.000000   0.000000   0.000000   0.000000  -0.000000  -0.000000
    29  H    0.000000   0.000000  -0.000000  -0.000000   0.000000   0.000000
    30  H    0.000000   0.000000  -0.000000  -0.000000   0.000000   0.000000
    31  H    0.000000  -0.000000   0.000000   0.000000  -0.000000  -0.000000
    32  H   -0.000000   0.000000  -0.000000   0.000000   0.000001   0.000000
    33  H    0.000000  -0.000000  -0.000002   0.000020   0.000013   0.000002
    34  H    0.000000  -0.000000   0.000000  -0.000000  -0.000009  -0.000000
               7          8          9         10         11         12
     1  C    0.381316  -0.027666   0.001927   0.001915  -0.027677   0.000009
     2  C   -0.027991   0.382579  -0.024031  -0.000058   0.002329   0.001502
     3  C    0.002171  -0.027349   0.368576   0.002556   0.000204  -0.044605
     4  C    0.000219   0.001560  -0.019692  -0.019578   0.001552   0.244106
     5  C    0.002175   0.000204   0.002562   0.368244  -0.027276  -0.044512
     6  C   -0.027967   0.002329  -0.000061  -0.023943   0.382566   0.001507
     7  H    0.446726  -0.001194  -0.000071  -0.000071  -0.001194   0.000002
     8  H   -0.001194   0.447135  -0.001109   0.000007  -0.000093  -0.000049
     9  H   -0.000071  -0.001109   0.392686  -0.000075   0.000007  -0.005364
    10  H   -0.000071   0.000007  -0.000075   0.391208  -0.001098  -0.005273
    11  H   -0.001194  -0.000093   0.000007  -0.001098   0.446793  -0.000049
    12  N    0.000002  -0.000049  -0.005364  -0.005273  -0.000049   5.740441
    13  O    0.000000   0.000000   0.000047   0.008693  -0.000001   0.310132
    14  O    0.000000  -0.000001   0.008989   0.000045   0.000000   0.314160
    15  C   -0.000000   0.000000  -0.000000  -0.000000   0.000000  -0.000000
    16  C    0.000000  -0.000000   0.000000   0.000000  -0.000000   0.000000
    17  C    0.000000   0.000000  -0.000000  -0.000000   0.000000  -0.000000
    18  H    0.000000   0.000000   0.000000   0.000000  -0.000000   0.000000
    19  H    0.000000   0.000000   0.000000  -0.000000   0.000000   0.000000
    20  H   -0.000000   0.000000  -0.000000  -0.000000   0.000000  -0.000000
    21  H    0.000000   0.000000   0.000000   0.000000  -0.000000  -0.000000
    22  H    0.000000   0.000000  -0.000000  -0.000000   0.000000   0.000000
    23  H    0.000000   0.000000  -0.000000  -0.000000   0.000000  -0.000000
    24  H    0.000000   0.000000   0.000000   0.000000  -0.000000   0.000000
    25  C    0.000000  -0.000000   0.000000   0.000000  -0.000000  -0.000000
    26  C   -0.000000   0.000000  -0.000000  -0.000001   0.000000  -0.000000
    27  C    0.000000   0.000000   0.000000   0.000104  -0.000000   0.000032
    28  H    0.000000  -0.000000   0.000000  -0.000000   0.000000   0.000001
    29  H   -0.000000   0.000000  -0.000000   0.000000  -0.000000   0.000000
    30  H   -0.000000  -0.000000  -0.000000  -0.000000   0.000000  -0.000000
    31  H    0.000000  -0.000000   0.000000   0.000000  -0.000000   0.000000
    32  H   -0.000000  -0.000000  -0.000000  -0.000005   0.000000  -0.000001
    33  H    0.000000  -0.000000   0.000000   0.000108  -0.000000   0.000025
    34  H    0.000000  -0.000000   0.000000   0.000045  -0.000000   0.000001
              13         14         15         16         17         18
     1  C   -0.000004  -0.000004  -0.000000   0.000000  -0.000000   0.000000
     2  C   -0.000028   0.000771   0.000000  -0.000000   0.000000  -0.000000
     3  C    0.003686   0.003943  -0.000000   0.000000   0.000000   0.000000
     4  C   -0.087466  -0.087822  -0.000000   0.000000  -0.000000  -0.000000
     5  C    0.004023   0.003697   0.000000  -0.000000   0.000000  -0.000000
     6  C    0.000773  -0.000028   0.000000  -0.000000   0.000000  -0.000000
     7  H    0.000000   0.000000  -0.000000   0.000000   0.000000   0.000000
     8  H    0.000000  -0.000001   0.000000  -0.000000   0.000000   0.000000
     9  H    0.000047   0.008989  -0.000000   0.000000  -0.000000   0.000000
    10  H    0.008693   0.000045  -0.000000   0.000000  -0.000000   0.000000
    11  H   -0.000001   0.000000   0.000000  -0.000000   0.000000  -0.000000
    12  N    0.310132   0.314160  -0.000000   0.000000  -0.000000   0.000000
    13  O    8.303403  -0.087202   0.000000  -0.000000   0.000000  -0.000000
    14  O   -0.087202   8.302665  -0.000000   0.000000   0.000000   0.000000
    15  C    0.000000  -0.000000   5.083140   0.352472  -0.057386   0.396344
    16  C   -0.000000   0.000000   0.352472   5.060597   0.340634  -0.041700
    17  C    0.000000   0.000000  -0.057386   0.340634   5.097763  -0.002887
    18  H   -0.000000   0.000000   0.396344  -0.041700  -0.002887   0.564514
    19  H    0.000000  -0.000000   0.395758  -0.042208  -0.002899  -0.031631
    20  H    0.000000  -0.000000  -0.043364   0.399278  -0.039838  -0.002978
    21  H   -0.000000   0.000000  -0.043731   0.398787  -0.040146   0.004568
    22  H    0.000000  -0.000000  -0.003767  -0.038946   0.391045   0.000159
    23  H   -0.000000   0.000000  -0.003746  -0.038773   0.391373   0.002617
    24  H    0.000000  -0.000000   0.004404  -0.035908   0.393883  -0.000058
    25  C   -0.000000  -0.000000   0.355849  -0.051926   0.004071  -0.041301
    26  C    0.000008  -0.000000  -0.051884   0.003977  -0.000085  -0.003196
    27  C   -0.001112   0.000002   0.004057  -0.000085   0.000001  -0.000050
    28  H   -0.000003   0.000000  -0.041301  -0.003281  -0.000051  -0.002808
    29  H   -0.000000   0.000000  -0.042080  -0.003300  -0.000052   0.004487
    30  H    0.000006   0.000000  -0.003204  -0.000063  -0.000000   0.002390
    31  H   -0.000000   0.000000  -0.003268  -0.000064  -0.000000   0.000235
    32  H    0.000013  -0.000000  -0.000068  -0.000001  -0.000000  -0.000001
    33  H    0.004284  -0.000026  -0.000063  -0.000000   0.000000   0.000013
    34  H    0.000011   0.000000  -0.000088   0.000001  -0.000000   0.000001
              19         20         21         22         23         24
     1  C   -0.000000  -0.000000  -0.000000   0.000000  -0.000000   0.000000
     2  C   -0.000000  -0.000000  -0.000000   0.000000   0.000000  -0.000000
     3  C   -0.000000  -0.000000   0.000000  -0.000000   0.000000  -0.000000
     4  C    0.000000  -0.000000   0.000000  -0.000000  -0.000000   0.000000
     5  C    0.000000   0.000000   0.000000   0.000000   0.000000  -0.000000
     6  C   -0.000000   0.000000   0.000000   0.000000   0.000000  -0.000000
     7  H    0.000000  -0.000000   0.000000   0.000000   0.000000   0.000000
     8  H    0.000000   0.000000   0.000000   0.000000   0.000000   0.000000
     9  H    0.000000  -0.000000   0.000000  -0.000000  -0.000000   0.000000
    10  H   -0.000000  -0.000000   0.000000  -0.000000  -0.000000   0.000000
    11  H    0.000000   0.000000  -0.000000   0.000000   0.000000  -0.000000
    12  N    0.000000  -0.000000  -0.000000   0.000000  -0.000000   0.000000
    13  O    0.000000   0.000000  -0.000000   0.000000  -0.000000   0.000000
    14  O   -0.000000  -0.000000   0.000000  -0.000000   0.000000  -0.000000
    15  C    0.395758  -0.043364  -0.043731  -0.003767  -0.003746   0.004404
    16  C   -0.042208   0.399278   0.398787  -0.038946  -0.038773  -0.035908
    17  C   -0.002899  -0.039838  -0.040146   0.391045   0.391373   0.393883
    18  H   -0.031631  -0.002978   0.004568   0.000159   0.002617  -0.000058
    19  H    0.570261   0.004583  -0.003008   0.002638   0.000159  -0.000059
    20  H    0.004583   0.562415  -0.031720   0.004221  -0.002889  -0.002501
    21  H   -0.003008  -0.031720   0.567079  -0.002905   0.004233  -0.002508
    22  H    0.002638   0.004221  -0.002905   0.550652  -0.029188  -0.027719
    23  H    0.000159  -0.002889   0.004233  -0.029188   0.548138  -0.027549
    24  H   -0.000059  -0.002501  -0.002508  -0.027719  -0.027549   0.539382
    25  C   -0.041878  -0.003129  -0.003158  -0.000071  -0.000070  -0.000087
    26  C   -0.003204  -0.000064  -0.000066  -0.000001  -0.000001   0.000001
    27  C   -0.000054  -0.000001  -0.000000  -0.000000  -0.000000  -0.000000
    28  H    0.004449   0.002394   0.000236  -0.000001   0.000013   0.000001
    29  H   -0.002846   0.000234   0.002423   0.000013  -0.000001   0.000001
    30  H    0.000235   0.000017  -0.000003   0.000000  -0.000002   0.000000
    31  H    0.002426  -0.000003   0.000017  -0.000002   0.000000   0.000000
    32  H    0.000014   0.000000  -0.000002   0.000000  -0.000000  -0.000000
    33  H   -0.000001  -0.000002   0.000000  -0.000000   0.000000  -0.000000
    34  H    0.000001   0.000000   0.000000  -0.000000  -0.000000   0.000000
              25         26         27         28         29         30
     1  C    0.000000  -0.000000   0.000000   0.000000   0.000000   0.000000
     2  C   -0.000000   0.000000  -0.000000   0.000000   0.000000   0.000000
     3  C    0.000000  -0.000000   0.000000   0.000000  -0.000000  -0.000000
     4  C    0.000000  -0.000000  -0.000006   0.000000  -0.000000  -0.000000
     5  C   -0.000000   0.000001  -0.000016  -0.000000   0.000000   0.000000
     6  C   -0.000000   0.000000  -0.000000  -0.000000   0.000000   0.000000
     7  H    0.000000  -0.000000   0.000000   0.000000  -0.000000  -0.000000
     8  H   -0.000000   0.000000   0.000000  -0.000000   0.000000  -0.000000
     9  H    0.000000  -0.000000   0.000000   0.000000  -0.000000  -0.000000
    10  H    0.000000  -0.000001   0.000104  -0.000000   0.000000  -0.000000
    11  H   -0.000000   0.000000  -0.000000   0.000000  -0.000000   0.000000
    12  N   -0.000000  -0.000000   0.000032   0.000001   0.000000  -0.000000
    13  O   -0.000000   0.000008  -0.001112  -0.000003  -0.000000   0.000006
    14  O   -0.000000  -0.000000   0.000002   0.000000   0.000000   0.000000
    15  C    0.355849  -0.051884   0.004057  -0.041301  -0.042080  -0.003204
    16  C   -0.051926   0.003977  -0.000085  -0.003281  -0.003300  -0.000063
    17  C    0.004071  -0.000085   0.000001  -0.000051  -0.000052  -0.000000
    18  H   -0.041301  -0.003196  -0.000050  -0.002808   0.004487   0.002390
    19  H   -0.041878  -0.003204  -0.000054   0.004449  -0.002846   0.000235
    20  H   -0.003129  -0.000064  -0.000001   0.002394   0.000234   0.000017
    21  H   -0.003158  -0.000066  -0.000000   0.000236   0.002423  -0.000003
    22  H   -0.000071  -0.000001  -0.000000  -0.000001   0.000013   0.000000
    23  H   -0.000070  -0.000001  -0.000000   0.000013  -0.000001  -0.000002
    24  H   -0.000087   0.000001  -0.000000   0.000001   0.000001   0.000000
    25  C    5.083111   0.353107  -0.057151   0.396732   0.395348  -0.043051
    26  C    0.353107   5.055714   0.340603  -0.041272  -0.042148   0.399913
    27  C   -0.057151   0.340603   5.109952  -0.002684  -0.002824  -0.039333
    28  H    0.396732  -0.041272  -0.002684   0.560588  -0.031641  -0.003012
    29  H    0.395348  -0.042148  -0.002824  -0.031641   0.572477   0.004555
    30  H   -0.043051   0.399913  -0.039333  -0.003012   0.004555   0.558088
    31  H   -0.044083   0.398310  -0.040413   0.004587  -0.003028  -0.032046
    32  H   -0.003908  -0.039241   0.387685   0.000142   0.002646   0.004271
    33  H   -0.003669  -0.036586   0.390064   0.002537   0.000155  -0.002815
    34  H    0.004393  -0.035691   0.393859  -0.000055  -0.000061  -0.002572
              31         32         33         34
     1  C    0.000000  -0.000000   0.000000   0.000000
     2  C   -0.000000   0.000000  -0.000000  -0.000000
     3  C    0.000000  -0.000000  -0.000002   0.000000
     4  C    0.000000   0.000000   0.000020  -0.000000
     5  C   -0.000000   0.000001   0.000013  -0.000009
     6  C   -0.000000   0.000000   0.000002  -0.000000
     7  H    0.000000  -0.000000   0.000000   0.000000
     8  H   -0.000000  -0.000000  -0.000000  -0.000000
     9  H    0.000000  -0.000000   0.000000   0.000000
    10  H    0.000000  -0.000005   0.000108   0.000045
    11  H   -0.000000   0.000000  -0.000000  -0.000000
    12  N    0.000000  -0.000001   0.000025   0.000001
    13  O   -0.000000   0.000013   0.004284   0.000011
    14  O    0.000000  -0.000000  -0.000026   0.000000
    15  C   -0.003268  -0.000068  -0.000063  -0.000088
    16  C   -0.000064  -0.000001  -0.000000   0.000001
    17  C   -0.000000  -0.000000   0.000000  -0.000000
    18  H    0.000235  -0.000001   0.000013   0.000001
    19  H    0.002426   0.000014  -0.000001   0.000001
    20  H   -0.000003   0.000000  -0.000002   0.000000
    21  H    0.000017  -0.000002   0.000000   0.000000
    22  H   -0.000002   0.000000  -0.000000  -0.000000
    23  H    0.000000  -0.000000   0.000000  -0.000000
    24  H    0.000000  -0.000000  -0.000000   0.000000
    25  C   -0.044083  -0.003908  -0.003669   0.004393
    26  C    0.398310  -0.039241  -0.036586  -0.035691
    27  C   -0.040413   0.387685   0.390064   0.393859
    28  H    0.004587   0.000142   0.002537  -0.000055
    29  H   -0.003028   0.002646   0.000155  -0.000061
    30  H   -0.032046   0.004271  -0.002815  -0.002572
    31  H    0.571730  -0.003031   0.004049  -0.002430
    32  H   -0.003031   0.563239  -0.028737  -0.028786
    33  H    0.004049  -0.028737   0.523805  -0.026319
    34  H   -0.002430  -0.028786  -0.026319   0.541817
 Mulliken charges:
               1
     1  C   -0.170530
     2  C   -0.218643
     3  C   -0.170856
     4  C    0.158028
     5  C   -0.170735
     6  C   -0.218635
     7  H    0.225877
     8  H    0.223647
     9  H    0.275609
    10  H    0.277175
    11  H    0.223937
    12  N    0.487936
    13  O   -0.459261
    14  O   -0.459191
    15  C   -0.298075
    16  C   -0.299493
    17  C   -0.475424
    18  H    0.151281
    19  H    0.147266
    20  H    0.153347
    21  H    0.149903
    22  H    0.153871
    23  H    0.155685
    24  H    0.158720
    25  C   -0.299130
    26  C   -0.298195
    27  C   -0.482630
    28  H    0.154431
    29  H    0.145642
    30  H    0.156628
    31  H    0.147015
    32  H    0.145768
    33  H    0.173147
    34  H    0.155883
 Sum of Mulliken charges =  -0.00000
 Mulliken charges with hydrogens summed into heavy atoms:
               1
     1  C    0.055348
     2  C    0.005005
     3  C    0.104753
     4  C    0.158028
     5  C    0.106440
     6  C    0.005302
    12  N    0.487936
    13  O   -0.459261
    14  O   -0.459191
    15  C    0.000473
    16  C    0.003758
    17  C   -0.007149
    25  C    0.000942
    26  C    0.005448
    27  C   -0.007832
 Electronic spatial extent (au):  <R**2>=           7964.2512
 Charge=             -0.0000 electrons
 Dipole moment (field-independent basis, Debye):
    X=              4.0553    Y=              1.7520    Z=             -2.9039  Tot=              5.2866
 Quadrupole moment (field-independent basis, Debye-Ang):
   XX=            -72.5976   YY=            -91.9343   ZZ=            -96.4050
   XY=              2.6390   XZ=             -8.9318   YZ=              2.6308
 Traceless Quadrupole moment (field-independent basis, Debye-Ang):
   XX=             14.3814   YY=             -4.9553   ZZ=             -9.4261
   XY=              2.6390   XZ=             -8.9318   YZ=              2.6308
 Octapole moment (field-independent basis, Debye-Ang**2):
  XXX=            150.0209  YYY=              3.7152  ZZZ=              6.8214  XYY=             23.5062
  XXY=              6.4993  XXZ=            -45.9261  XZZ=              9.4841  YZZ=             -0.6836
  YYZ=             -6.1747  XYZ=              6.3041
 Hexadecapole moment (field-independent basis, Debye-Ang**3):
 XXXX=          -9168.8798 YYYY=           -986.4884 ZZZZ=           -566.8931 XXXY=            -47.3999
 XXXZ=           -278.4881 YYYX=             10.4081 YYYZ=              9.9666 ZZZX=              0.7853
 ZZZY=            -10.4700 XXYY=          -1652.6127 XXZZ=          -1616.5602 YYZZ=           -260.8512
 XXYZ=            -10.3581 YYXZ=            -25.8030 ZZXY=             -1.0393
 N-N= 8.860778204878D+02 E-N=-3.335546652658D+03  KE= 6.679559263916D+02
 Leave Link  601 at Thu May  6 20:46:45 2021, MaxMem=   524288000 cpu:               0.3 elap:               0.3
 (Enter /opt/gaussian/g16_legacy/l9999.exe)
 1\1\GINC-TRUENO93\SP\RMP2-FC\6-31G(d)\C12H19N1O2\JRAMOS\06-May-2021\0\
 \#p 6-31g* mp2\\Input file generated by CHIRIPA (05-May-2021 14:55:22)
 \\0,1\C,0,1.914143,0.,0.\C,0,1.214143,1.211,0.\C,0,-0.183857,1.223,0.\
 C,0,-0.852857,0.,0.\C,0,-0.183857,-1.223,0.\C,0,1.214143,-1.211,0.\H,0
 ,3.000143,0.,0.\H,0,1.755143,2.153,0.\H,0,-0.750857,2.146,0.\H,0,-0.75
 0857,-2.146,0.\H,0,1.755143,-2.153,0.\N,0,-2.332857,0.,0.\O,0,-2.89885
 7,-1.091,0.\O,0,-2.898857,1.091,0.\C,0,-6.441313,-2.562743,5.240859\C,
 0,-6.667348,-1.490767,6.307517\C,0,-8.061429,-1.562291,6.93139\H,0,-7.
 201992,-2.455613,4.45547\H,0,-6.592804,-3.554264,5.68956\H,0,-6.514121
 ,-0.501616,5.857276\H,0,-5.905926,-1.600342,7.090361\H,0,-8.221529,-2.
 535712,7.406174\H,0,-8.83318,-1.430744,6.166082\H,0,-8.201488,-0.78709
 4,7.691201\C,0,-5.052187,-2.504147,4.607911\C,0,-4.826152,-3.576123,3.
 541252\C,0,-3.432071,-3.504599,2.91738\H,0,-4.900696,-1.512626,4.15921
 \H,0,-4.291508,-2.611277,5.3933\H,0,-5.587574,-3.466548,2.758408\H,0,-
 4.979379,-4.565274,3.991494\H,0,-2.66032,-3.636146,3.682687\H,0,-3.271
 971,-2.531178,2.442596\H,0,-3.292012,-4.279796,2.157568\\Version=EM64L
 -G16RevA.03\State=1-A\HF=-669.5362626\MP2=-671.6271023\RMSD=6.559e-09\
 PG=C01 [X(C12H19N1O2)]\\@


 THE ONLY DIFFERENCE BETWEEN ECCENTRICS AND JOGGERS
 IS THAT JOGGERS WEAR SWEATBANDS WHEN THEY RUN IN THE RAIN.
 Job cpu time:       0 days  0 hours  3 minutes  1.9 seconds.
 Elapsed time:       0 days  0 hours  1 minutes 32.1 seconds.
 File lengths (MBytes):  RWF=     43 Int=      0 D2E=      0 Chk=      6 Scr=      1
 Normal termination of Gaussian 16 at Thu May  6 20:46:46 2021.
