 Entering Gaussian System, Link 0=/opt/gaussian/g16_legacy/g16
 Input=gaussian_03249_1_2.com
 Output=gaussian_03249_1_2.log
 Initial command:
 /opt/gaussian/g16_legacy/l1.exe "/scratch-local/jramos/2586907/Gau-28358.inp" -scrdir="/scratch-local/jramos/2586907/"
 Entering Link 1 = /opt/gaussian/g16_legacy/l1.exe PID=     28359.
  
 Copyright (c) 1988,1990,1992,1993,1995,1998,2003,2009,2016,
            Gaussian, Inc.  All Rights Reserved.
  
 This is part of the Gaussian(R) 16 program.  It is based on
 the Gaussian(R) 09 system (copyright 2009, Gaussian, Inc.),
 the Gaussian(R) 03 system (copyright 2003, Gaussian, Inc.),
 the Gaussian(R) 98 system (copyright 1998, Gaussian, Inc.),
 the Gaussian(R) 94 system (copyright 1995, Gaussian, Inc.),
 the Gaussian 92(TM) system (copyright 1992, Gaussian, Inc.),
 the Gaussian 90(TM) system (copyright 1990, Gaussian, Inc.),
 the Gaussian 88(TM) system (copyright 1988, Gaussian, Inc.),
 the Gaussian 86(TM) system (copyright 1986, Carnegie Mellon
 University), and the Gaussian 82(TM) system (copyright 1983,
 Carnegie Mellon University). Gaussian is a federally registered
 trademark of Gaussian, Inc.
  
 This software contains proprietary and confidential information,
 including trade secrets, belonging to Gaussian, Inc.
  
 This software is provided under written license and may be
 used, copied, transmitted, or stored only in accord with that
 written license.
  
 The following legend is applicable only to US Government
 contracts under FAR:
  
                    RESTRICTED RIGHTS LEGEND
  
 Use, reproduction and disclosure by the US Government is
 subject to restrictions as set forth in subparagraphs (a)
 and (c) of the Commercial Computer Software - Restricted
 Rights clause in FAR 52.227-19.
  
 Gaussian, Inc.
 340 Quinnipiac St., Bldg. 40, Wallingford CT 06492
  
  
 ---------------------------------------------------------------
 Warning -- This program may not be used in any manner that
 competes with the business of Gaussian, Inc. or will provide
 assistance to any competitor of Gaussian, Inc.  The licensee
 of this program is prohibited from giving any competitor of
 Gaussian, Inc. access to this program.  By using this program,
 the user acknowledges that Gaussian, Inc. is engaged in the
 business of creating and licensing software in the field of
 computational chemistry and represents and warrants to the
 licensee that it is not a competitor of Gaussian, Inc. and that
 it will not use this program in any manner prohibited above.
 ---------------------------------------------------------------
  

 Cite this work as:
 Gaussian 16, Revision A.03,
 M. J. Frisch, G. W. Trucks, H. B. Schlegel, G. E. Scuseria, 
 M. A. Robb, J. R. Cheeseman, G. Scalmani, V. Barone, 
 G. A. Petersson, H. Nakatsuji, X. Li, M. Caricato, A. V. Marenich, 
 J. Bloino, B. G. Janesko, R. Gomperts, B. Mennucci, H. P. Hratchian, 
 J. V. Ortiz, A. F. Izmaylov, J. L. Sonnenberg, D. Williams-Young, 
 F. Ding, F. Lipparini, F. Egidi, J. Goings, B. Peng, A. Petrone, 
 T. Henderson, D. Ranasinghe, V. G. Zakrzewski, J. Gao, N. Rega, 
 G. Zheng, W. Liang, M. Hada, M. Ehara, K. Toyota, R. Fukuda, 
 J. Hasegawa, M. Ishida, T. Nakajima, Y. Honda, O. Kitao, H. Nakai, 
 T. Vreven, K. Throssell, J. A. Montgomery, Jr., J. E. Peralta, 
 F. Ogliaro, M. J. Bearpark, J. J. Heyd, E. N. Brothers, K. N. Kudin, 
 V. N. Staroverov, T. A. Keith, R. Kobayashi, J. Normand, 
 K. Raghavachari, A. P. Rendell, J. C. Burant, S. S. Iyengar, 
 J. Tomasi, M. Cossi, J. M. Millam, M. Klene, C. Adamo, R. Cammi, 
 J. W. Ochterski, R. L. Martin, K. Morokuma, O. Farkas, 
 J. B. Foresman, and D. J. Fox, Gaussian, Inc., Wallingford CT, 2016.
 
 ******************************************
 Gaussian 16:  EM64L-G16RevA.03 25-Dec-2016
                 5-May-2021 
 ******************************************
 %chk=gaussian_03249_1_2.chk
 %nproc=2
 Will use up to    2 processors via shared memory.
 %mem=4000Mb
 -------------
 #p 6-31g* mp2
 -------------
 1/38=1,172=1/1;
 2/12=2,17=6,18=5,40=1/2;
 3/5=1,6=6,7=1,11=9,25=1,30=1/1,2,3;
 4//1;
 5/5=2,38=5/2;
 8/10=2/1;
 9/16=-3/6;
 6/7=2,8=2,9=2,10=2/1;
 99/5=1,9=1/99;
 Leave Link    1 at Wed May  5 20:17:30 2021, MaxMem=   524288000 cpu:               0.1 elap:               0.1
 (Enter /opt/gaussian/g16_legacy/l101.exe)
 ------------------------------------------------------
 Input file generated by CHIRIPA (05-May-2021 14:53:16)
 ------------------------------------------------------
 Symbolic Z-matrix:
 Charge =  0 Multiplicity = 1
 C                    -0.666    -0.374     0. 
 C                    -1.882     0.553     0. 
 C                    -3.207    -0.21      0. 
 H                    -0.713    -1.03     -0.88 
 H                    -0.713    -1.029     0.881 
 H                    -1.832     1.207    -0.88 
 H                    -1.832     1.207     0.88 
 H                    -3.283    -0.85      0.885 
 H                    -3.283    -0.85     -0.885 
 H                    -4.063     0.472     0. 
 C                     0.666     0.374     0. 
 C                     1.882    -0.553     0. 
 C                     3.207     0.21      0. 
 H                     0.713     1.029    -0.881 
 H                     0.713     1.03      0.88 
 H                     1.832    -1.207    -0.88 
 H                     1.832    -1.207     0.88 
 H                     3.283     0.85      0.885 
 H                     3.283     0.85     -0.885 
 H                     4.063    -0.472     0. 
 C                    -2.95265  -8.49331  -0.86351 
 C                    -1.98478  -8.23606  -1.84002 
 C                    -1.65912  -6.92176  -2.18801 
 C                    -2.32394  -5.88407  -1.53647 
 C                    -3.29278  -6.1081   -0.55951 
 C                    -3.60242  -7.43039  -0.22749 
 H                    -3.19942  -9.51739  -0.59939 
 H                    -1.47856  -9.05957  -2.33561 
 H                    -0.91382  -6.69412  -2.94043 
 H                    -3.78041  -5.26639  -0.08289 
 H                    -4.35449  -7.62719   0.53125 
 N                    -1.98765  -4.48845  -1.89641 
 O                    -2.58771  -3.59181  -1.3077 
 O                    -1.13038  -4.31764  -2.76044 
 
 ITRead=  0  0  0  0  0  0  0  0  0  0  0  0  0  0  0  0  0  0  0  0
 ITRead=  0  0  0  0  0  0  0  0  0  0  0  0  0  0
 MicOpt= -1 -1 -1 -1 -1 -1 -1 -1 -1 -1 -1 -1 -1 -1 -1 -1 -1 -1 -1 -1
 MicOpt= -1 -1 -1 -1 -1 -1 -1 -1 -1 -1 -1 -1 -1 -1
 NAtoms=     34 NQM=       34 NQMF=       0 NMMI=      0 NMMIF=      0
                NMic=       0 NMicF=      0.
                    Isotopes and Nuclear Properties:
 (Nuclear quadrupole moments (NQMom) in fm**2, nuclear magnetic moments (NMagM)
  in nuclear magnetons)

  Atom         1           2           3           4           5           6           7           8           9          10
 IAtWgt=          12          12          12           1           1           1           1           1           1           1
 AtmWgt=  12.0000000  12.0000000  12.0000000   1.0078250   1.0078250   1.0078250   1.0078250   1.0078250   1.0078250   1.0078250
 NucSpn=           0           0           0           1           1           1           1           1           1           1
 AtZEff=  -0.0000000  -0.0000000  -0.0000000  -0.0000000  -0.0000000  -0.0000000  -0.0000000  -0.0000000  -0.0000000  -0.0000000
 NQMom=    0.0000000   0.0000000   0.0000000   0.0000000   0.0000000   0.0000000   0.0000000   0.0000000   0.0000000   0.0000000
 NMagM=    0.0000000   0.0000000   0.0000000   2.7928460   2.7928460   2.7928460   2.7928460   2.7928460   2.7928460   2.7928460
 AtZNuc=   6.0000000   6.0000000   6.0000000   1.0000000   1.0000000   1.0000000   1.0000000   1.0000000   1.0000000   1.0000000

  Atom        11          12          13          14          15          16          17          18          19          20
 IAtWgt=          12          12          12           1           1           1           1           1           1           1
 AtmWgt=  12.0000000  12.0000000  12.0000000   1.0078250   1.0078250   1.0078250   1.0078250   1.0078250   1.0078250   1.0078250
 NucSpn=           0           0           0           1           1           1           1           1           1           1
 AtZEff=  -0.0000000  -0.0000000  -0.0000000  -0.0000000  -0.0000000  -0.0000000  -0.0000000  -0.0000000  -0.0000000  -0.0000000
 NQMom=    0.0000000   0.0000000   0.0000000   0.0000000   0.0000000   0.0000000   0.0000000   0.0000000   0.0000000   0.0000000
 NMagM=    0.0000000   0.0000000   0.0000000   2.7928460   2.7928460   2.7928460   2.7928460   2.7928460   2.7928460   2.7928460
 AtZNuc=   6.0000000   6.0000000   6.0000000   1.0000000   1.0000000   1.0000000   1.0000000   1.0000000   1.0000000   1.0000000

  Atom        21          22          23          24          25          26          27          28          29          30
 IAtWgt=          12          12          12          12          12          12           1           1           1           1
 AtmWgt=  12.0000000  12.0000000  12.0000000  12.0000000  12.0000000  12.0000000   1.0078250   1.0078250   1.0078250   1.0078250
 NucSpn=           0           0           0           0           0           0           1           1           1           1
 AtZEff=  -0.0000000  -0.0000000  -0.0000000  -0.0000000  -0.0000000  -0.0000000  -0.0000000  -0.0000000  -0.0000000  -0.0000000
 NQMom=    0.0000000   0.0000000   0.0000000   0.0000000   0.0000000   0.0000000   0.0000000   0.0000000   0.0000000   0.0000000
 NMagM=    0.0000000   0.0000000   0.0000000   0.0000000   0.0000000   0.0000000   2.7928460   2.7928460   2.7928460   2.7928460
 AtZNuc=   6.0000000   6.0000000   6.0000000   6.0000000   6.0000000   6.0000000   1.0000000   1.0000000   1.0000000   1.0000000

  Atom        31          32          33          34
 IAtWgt=           1          14          16          16
 AtmWgt=   1.0078250  14.0030740  15.9949146  15.9949146
 NucSpn=           1           2           0           0
 AtZEff=  -0.0000000  -0.0000000  -0.0000000  -0.0000000
 NQMom=    0.0000000   2.0440000   0.0000000   0.0000000
 NMagM=    2.7928460   0.4037610   0.0000000   0.0000000
 AtZNuc=   1.0000000   7.0000000   8.0000000   8.0000000
 Leave Link  101 at Wed May  5 20:17:30 2021, MaxMem=   524288000 cpu:               0.1 elap:               0.1
 (Enter /opt/gaussian/g16_legacy/l202.exe)
                          Input orientation:                          
 ---------------------------------------------------------------------
 Center     Atomic      Atomic             Coordinates (Angstroms)
 Number     Number       Type             X           Y           Z
 ---------------------------------------------------------------------
      1          6           0       -0.666000   -0.374000    0.000000
      2          6           0       -1.882000    0.553000    0.000000
      3          6           0       -3.207000   -0.210000    0.000000
      4          1           0       -0.713000   -1.030000   -0.880000
      5          1           0       -0.713000   -1.029000    0.881000
      6          1           0       -1.832000    1.207000   -0.880000
      7          1           0       -1.832000    1.207000    0.880000
      8          1           0       -3.283000   -0.850000    0.885000
      9          1           0       -3.283000   -0.850000   -0.885000
     10          1           0       -4.063000    0.472000    0.000000
     11          6           0        0.666000    0.374000    0.000000
     12          6           0        1.882000   -0.553000    0.000000
     13          6           0        3.207000    0.210000    0.000000
     14          1           0        0.713000    1.029000   -0.881000
     15          1           0        0.713000    1.030000    0.880000
     16          1           0        1.832000   -1.207000   -0.880000
     17          1           0        1.832000   -1.207000    0.880000
     18          1           0        3.283000    0.850000    0.885000
     19          1           0        3.283000    0.850000   -0.885000
     20          1           0        4.063000   -0.472000    0.000000
     21          6           0       -2.952654   -8.493312   -0.863509
     22          6           0       -1.984784   -8.236059   -1.840019
     23          6           0       -1.659116   -6.921758   -2.188013
     24          6           0       -2.323936   -5.884072   -1.536466
     25          6           0       -3.292776   -6.108101   -0.559507
     26          6           0       -3.602415   -7.430386   -0.227491
     27          1           0       -3.199415   -9.517394   -0.599385
     28          1           0       -1.478558   -9.059568   -2.335612
     29          1           0       -0.913820   -6.694119   -2.940431
     30          1           0       -3.780405   -5.266394   -0.082887
     31          1           0       -4.354494   -7.627186    0.531253
     32          7           0       -1.987650   -4.488454   -1.896414
     33          8           0       -2.587712   -3.591806   -1.307700
     34          8           0       -1.130375   -4.317644   -2.760440
 ---------------------------------------------------------------------
                    Distance matrix (angstroms):
                    1          2          3          4          5
     1  C    0.000000
     2  C    1.529047   0.000000
     3  C    2.546287   1.528985   0.000000
     4  H    1.098610   2.155655   2.768905   0.000000
     5  H    1.098815   2.155330   2.768927   1.761000   0.000000
     6  H    2.152561   1.097550   2.161692   2.501266   3.058264
     7  H    2.152561   1.097550   2.161692   3.058420   2.500372
     8  H    2.803300   2.171275   1.094806   3.122903   2.576229
     9  H    2.803300   2.171275   1.094806   2.576301   3.123411
    10  H    3.500761   2.182504   1.094468   3.775302   3.775137
    11  C    1.527654   2.554280   3.916782   2.155750   2.155507
    12  C    2.554280   3.923128   5.100546   2.781358   2.781504
    13  C    3.916782   5.100546   6.427736   4.204569   4.204484
    14  H    2.155507   2.781504   4.204484   2.504587   3.061615
    15  H    2.155750   2.781358   4.204569   3.061809   2.504587
    16  H    2.776381   4.203070   5.211519   2.551148   3.099973
    17  H    2.776381   4.203070   5.211519   3.099347   2.551217
    18  H    4.228002   5.248682   6.635279   4.755801   4.415730
    19  H    4.228002   5.248682   6.635279   4.416157   4.755777
    20  H    4.730015   6.032715   7.274720   4.888347   4.888413
    21  C    8.479249   9.150285   8.332082   7.792134   7.985945
    22  C    8.181493   8.980189   8.324488   7.380133   7.807886
    23  C    6.974727   7.791604   7.227105   6.108915   6.711078
    24  C    5.955701   6.632641   5.944377   5.156363   5.657825
    25  C    6.331897   6.831808   5.925201   5.704829   5.876017
    26  C    7.646363   8.169824   7.234783   7.052619   7.110219
    27  H    9.506793  10.173872   9.326677   8.848551   8.968090
    28  H    9.030749   9.900470   9.314368   8.196270   8.684624
    29  H    6.975059   7.880624   7.479880   6.030584   6.836464
    30  H    5.800164   6.121777   5.089478   5.290690   5.319169
    31  H    8.154503   8.562178   7.524202   7.666484   7.544459
    32  N    4.719309   5.387375   4.836152   3.823445   4.615905
    33  O    3.969551   4.403127   3.678343   3.203174   3.856543
    34  O    4.836114   5.648729   5.367042   3.810362   4.924375
                    6          7          8          9         10
     6  H    0.000000
     7  H    1.760000   0.000000
     8  H    3.074390   2.517275   0.000000
     9  H    2.517275   3.074390   1.770000   0.000000
    10  H    2.508383   2.508383   1.771810   1.771810   0.000000
    11  C    2.776381   2.776381   4.228002   4.228002   4.730015
    12  C    4.203070   4.203070   5.248682   5.248682   6.032715
    13  C    5.211519   5.211519   6.635279   6.635279   7.274720
    14  H    2.551217   3.099973   4.755777   4.415730   4.888413
    15  H    3.099347   2.551148   4.416157   4.755801   4.888347
    16  H    4.387743   4.727567   5.422721   5.127446   6.192291
    17  H    4.727567   4.387743   5.127446   5.422721   6.192291
    18  H    5.422721   5.127446   6.782504   7.009654   7.408767
    19  H    5.127446   5.422721   7.009654   6.782504   7.408767
    20  H    6.192291   6.192291   7.408767   7.408767   8.180649
    21  C    9.764845   9.919261   7.847715   7.650478   9.074984
    22  C    9.492963   9.828184   7.979033   7.559847   9.139745
    23  C    8.235138   8.690184   6.996188   6.418807   8.076739
    24  C    7.138365   7.507637   5.667908   5.165858   6.766441
    25  C    7.466410   7.597154   5.452919   5.268175   6.648611
    26  C    8.841073   8.886245   6.681403   6.620863   7.919065
    27  H   10.814860  10.911967   8.793981   8.672501  10.044552
    28  H   10.375266  10.764177   9.001409   8.529789  10.148163
    29  H    8.216819   8.824196   7.375681   6.632612   8.361622
    30  H    6.807092   6.828489   4.548489   4.516119   5.745946
    31  H    9.295023   9.193881   6.870479   7.006006   8.121823
    32  N    5.787531   6.338052   4.759469   3.992397   5.701716
    33  O    4.876737   5.327820   3.578947   2.860000   4.516755
    34  O    5.877927   6.653328   5.472438   4.491728   6.257876
                   11         12         13         14         15
    11  C    0.000000
    12  C    1.529047   0.000000
    13  C    2.546287   1.528985   0.000000
    14  H    1.098815   2.155330   2.768927   0.000000
    15  H    1.098610   2.155655   2.768905   1.761000   0.000000
    16  H    2.152561   1.097550   2.161692   2.500372   3.058420
    17  H    2.152561   1.097550   2.161692   3.058264   2.501266
    18  H    2.803300   2.171275   1.094806   3.123411   2.576301
    19  H    2.803300   2.171275   1.094806   2.576229   3.122903
    20  H    3.500761   2.182504   1.094468   3.775137   3.775302
    21  C    9.616108   9.336385  10.697412  10.203517  10.352310
    22  C    9.194860   8.795856  10.083462   9.697375  10.026784
    23  C    7.963771   7.608415   8.906652   8.399391   8.847039
    24  C    7.103795   6.962108   8.371959   7.579128   7.928851
    25  C    7.615943   7.612523   9.081769   8.190715   8.310891
    26  C    8.898290   8.799375  10.236962   9.518986   9.561771
    27  H   10.636746  10.321841  11.662916  11.252232  11.346501
    28  H    9.952207   9.439816  10.645864  10.425835  10.813994
    29  H    7.816666   7.360441   8.561200   8.156860   8.769507
    30  H    7.182718   7.367889   8.878152   7.775581   7.795025
    31  H    9.460791   9.445644  10.903206  10.129339  10.037330
    32  N    5.855058   5.835955   7.256462   6.226305   6.742056
    33  O    5.293802   5.560822   7.052836   5.694613   6.086199
    34  O    5.732235   5.555806   6.850723   5.959608   6.726673
                   16         17         18         19         20
    16  H    0.000000
    17  H    1.760000   0.000000
    18  H    3.074390   2.517275   0.000000
    19  H    2.517275   3.074390   1.770000   0.000000
    20  H    2.508383   2.508383   1.771810   1.771810   0.000000
    21  C    8.716853   8.889493  11.368296  11.233046  10.691422
    22  C    8.055877   8.448314  10.850426  10.545998  10.012091
    23  C    6.823287   7.366075   9.709178   9.301751   8.895470
    24  C    6.291085   6.707169   9.091147   8.786914   8.511416
    25  C    7.098369   7.235765   9.682076   9.579246   9.283648
    26  C    8.287893   8.336062  10.826420  10.789164  10.355167
    27  H    9.718875   9.826819  12.316979  12.230541  11.615554
    28  H    8.645312   9.108391  11.456191  11.089466  10.483810
    29  H    6.472509   7.227980   9.442508   8.874223   8.492917
    30  H    6.972314   6.993205   9.393549   9.377918   9.193046
    31  H    9.026801   8.922618  11.415741  11.497816  11.060430
    32  N    5.137194   5.750317   8.000944   7.569795   7.505908
    33  O    5.040246   5.477881   7.681330   7.373844   7.461584
    34  O    4.689118   5.630682   7.711787   7.049801   7.027101
                   21         22         23         24         25
    21  C    0.000000
    22  C    1.398758   0.000000
    23  C    2.428443   1.398051   0.000000
    24  C    2.767000   2.395623   1.394020   0.000000
    25  C    2.428442   2.806913   2.446000   1.394019   0.000000
    26  C    1.398757   2.422000   2.806913   2.395623   1.398052
    27  H    1.086000   2.157851   3.410804   3.853001   3.410804
    28  H    2.158864   1.086298   2.150493   3.381874   3.893211
    29  H    3.421629   2.176109   1.083244   2.148423   3.416379
    30  H    3.421629   3.889817   3.416380   2.148423   1.083245
    31  H    2.158863   3.407225   3.893212   3.381874   2.150493
    32  N    4.247000   3.748030   2.472637   1.480000   2.472636
    33  O    4.935104   4.713382   3.567327   2.318705   2.718207
    34  O    4.935104   4.114750   2.718207   2.318706   3.567327
                   26         27         28         29         30
    26  C    0.000000
    27  H    2.157850   0.000000
    28  H    3.407224   2.487054   0.000000
    29  H    3.889817   4.321495   2.506010   0.000000
    30  H    2.176109   4.321495   4.976087   4.292000   0.000000
    31  H    1.086299   2.487054   4.306001   4.976087   2.506010
    32  N    3.748031   5.333001   4.620298   2.666091   2.666091
    33  O    4.114750   5.999040   5.673028   3.884851   2.393100
    34  O    4.713383   5.999040   4.773631   2.393100   3.884852
                   31         32         33         34
    31  H    0.000000
    32  N    4.620298   0.000000
    33  O    4.773632   1.229079   0.000000
    34  O    5.673029   1.229080   2.182000   0.000000
 Stoichiometry    C12H19NO2
 Framework group  C1[X(C12H19NO2)]
 Deg. of freedom    96
 Full point group                 C1      NOp   1
 Largest Abelian subgroup         C1      NOp   1
 Largest concise Abelian subgroup C1      NOp   1
                         Standard orientation:                         
 ---------------------------------------------------------------------
 Center     Atomic      Atomic             Coordinates (Angstroms)
 Number     Number       Type             X           Y           Z
 ---------------------------------------------------------------------
      1          6           0       -3.165384    0.655633   -0.202546
      2          6           0       -3.525811    2.102387    0.136542
      3          6           0       -2.313805    3.034243    0.114637
      4          1           0       -2.411272    0.295531    0.510606
      5          1           0       -2.696143    0.625115   -1.195660
      6          1           0       -3.995490    2.129990    1.128135
      7          1           0       -4.279294    2.459024   -0.577383
      8          1           0       -1.847372    3.036392   -0.875836
      9          1           0       -1.561955    2.705489    0.839373
     10          1           0       -2.594172    4.063384    0.359836
     11          6           0       -4.366569   -0.288065   -0.184726
     12          6           0       -4.006143   -1.734819   -0.523814
     13          6           0       -5.218148   -2.666675   -0.501908
     14          1           0       -4.835811   -0.257547    0.808389
     15          1           0       -5.120682    0.072038   -0.897878
     16          1           0       -3.252660   -2.091456    0.190112
     17          1           0       -3.536464   -1.762422   -1.515407
     18          1           0       -5.969999   -2.337920   -1.226644
     19          1           0       -5.684582   -2.668824    0.488564
     20          1           0       -4.937781   -3.695816   -0.747107
     21          6           0        5.222159   -0.370589   -0.905151
     22          6           0        4.765892   -1.342934   -0.009110
     23          6           0        3.504331   -1.227411    0.582216
     24          6           0        2.721748   -0.121635    0.253410
     25          6           0        3.148255    0.863758   -0.635625
     26          6           0        4.413310    0.727717   -1.215002
     27          1           0        6.203527   -0.468299   -1.359866
     28          1           0        5.391900   -2.196956    0.233384
     29          1           0        3.126325   -1.965500    1.279176
     30          1           0        2.501517    1.703877   -0.857773
     31          1           0        4.765054    1.484390   -1.910536
     32          7           0        1.384341    0.011524    0.873095
     33          8           0        0.714051    0.995182    0.566883
     34          8           0        1.031696   -0.870285    1.653282
 ---------------------------------------------------------------------
 Rotational constants (GHZ):           0.8539257           0.1820985           0.1619521
 Leave Link  202 at Wed May  5 20:17:30 2021, MaxMem=   524288000 cpu:               0.0 elap:               0.1
 (Enter /opt/gaussian/g16_legacy/l301.exe)
 Standard basis: 6-31G(d) (6D, 7F)
 Ernie: Thresh=  0.10000D-02 Tol=  0.10000D-05 Strict=F.
 There are   263 symmetry adapted cartesian basis functions of A   symmetry.
 There are   263 symmetry adapted basis functions of A   symmetry.
   263 basis functions,   496 primitive gaussians,   263 cartesian basis functions
    57 alpha electrons       57 beta electrons
       nuclear repulsion energy       907.3159577177 Hartrees.
 IExCor=    0 DFT=F Ex=HF Corr=None ExCW=0 ScaHFX=  1.000000
 ScaDFX=  1.000000  1.000000  1.000000  1.000000 ScalE2=  1.000000  1.000000
 IRadAn=      5 IRanWt=     -1 IRanGd=            0 ICorTp=0 IEmpDi=  4
 NAtoms=   34 NActive=   34 NUniq=   34 SFac= 1.00D+00 NAtFMM=   60 NAOKFM=F Big=F
 Integral buffers will be    131072 words long.
 Raffenetti 1 integral format.
 Two-electron integral symmetry is turned on.
 Leave Link  301 at Wed May  5 20:17:31 2021, MaxMem=   524288000 cpu:               0.1 elap:               0.1
 (Enter /opt/gaussian/g16_legacy/l302.exe)
 NPDir=0 NMtPBC=     1 NCelOv=     1 NCel=       1 NClECP=     1 NCelD=      1
         NCelK=      1 NCelE2=     1 NClLst=     1 CellRange=     0.0.
 One-electron integrals computed using PRISM.
 One-electron integral symmetry used in STVInt
 NBasis=   263 RedAO= T EigKep=  4.81D-04  NBF=   263
 NBsUse=   263 1.00D-06 EigRej= -1.00D+00 NBFU=   263
 Leave Link  302 at Wed May  5 20:17:31 2021, MaxMem=   524288000 cpu:               0.4 elap:               0.4
 (Enter /opt/gaussian/g16_legacy/l303.exe)
 DipDrv:  MaxL=1.
 Leave Link  303 at Wed May  5 20:17:31 2021, MaxMem=   524288000 cpu:               0.0 elap:               0.1
 (Enter /opt/gaussian/g16_legacy/l401.exe)
 ExpMin= 1.61D-01 ExpMax= 5.48D+03 ExpMxC= 8.25D+02 IAcc=3 IRadAn=         5 AccDes= 0.00D+00
 Harris functional with IExCor=  205 and IRadAn=       5 diagonalized for initial guess.
 HarFok:  IExCor=  205 AccDes= 0.00D+00 IRadAn=         5 IDoV= 1 UseB2=F ITyADJ=14
 ICtDFT=  3500011 ScaDFX=  1.000000  1.000000  1.000000  1.000000
 FoFCou: FMM=F IPFlag=           0 FMFlag=      100000 FMFlg1=           0
         NFxFlg=           0 DoJE=T BraDBF=F KetDBF=T FulRan=T
         wScrn=  0.000000 ICntrl=       500 IOpCl=  0 I1Cent=   200000004 NGrid=           0
         NMat0=    1 NMatS0=      1 NMatT0=    0 NMatD0=    1 NMtDS0=    0 NMtDT0=    0
 Petite list used in FoFCou.
 Harris En= -670.658850823921    
 JPrj=0 DoOrth=F DoCkMO=F.
 Leave Link  401 at Wed May  5 20:17:35 2021, MaxMem=   524288000 cpu:               7.4 elap:               3.9
 (Enter /opt/gaussian/g16_legacy/l502.exe)
 Integral symmetry usage will be decided dynamically.
 Closed shell SCF:
 Using DIIS extrapolation, IDIIS=  1040.
 NGot=   524288000 LenX=   524144919 LenY=   524075309
 Requested convergence on RMS density matrix=1.00D-08 within 128 cycles.
 Requested convergence on MAX density matrix=1.00D-06.
 Requested convergence on             energy=1.00D-06.
 No special actions if energy rises.
 Fock matrices will be formed incrementally for  20 cycles.
 Integral accuracy reduced to 1.0D-05 until final iterations.

 Cycle   1  Pass 0  IDiag  1:
 FoFJK:  IHMeth= 1 ICntrl=       0 DoSepK=F KAlg= 0 I1Cent=           0 FoldK=F
 IRaf= 710000000 NMat=       1 IRICut=       1 DoRegI=T DoRafI=F ISym2E= 0 IDoP0=0 IntGTp=1.
 FoFCou: FMM=F IPFlag=           0 FMFlag=      100000 FMFlg1=           0
         NFxFlg=           0 DoJE=F BraDBF=F KetDBF=F FulRan=T
         wScrn=  0.000000 ICntrl=         0 IOpCl=  0 I1Cent=           0 NGrid=           0
         NMat0=    1 NMatS0=      1 NMatT0=    0 NMatD0=    1 NMtDS0=    0 NMtDT0=    0
 Symmetry not used in FoFCou.
 E= -668.738147328271    
 DIIS: error= 6.14D-02 at cycle   1 NSaved=   1.
 NSaved= 1 IEnMin= 1 EnMin= -668.738147328271     IErMin= 1 ErrMin= 6.14D-02
 ErrMax= 6.14D-02  0.00D+00 EMaxC= 1.00D-01 BMatC= 1.18D+00 BMatP= 1.18D+00
 IDIUse=3 WtCom= 3.86D-01 WtEn= 6.14D-01
 Coeff-Com:  0.100D+01
 Coeff-En:   0.100D+01
 Coeff:      0.100D+01
 Gap=     0.556 Goal=   None    Shift=    0.000
 GapD=    0.556 DampG=2.000 DampE=0.500 DampFc=1.0000 IDamp=-1.
 RMSDP=4.60D-03 MaxDP=1.19D-01              OVMax= 1.52D-01

 Cycle   2  Pass 0  IDiag  1:
 RMSU=  4.48D-03    CP:  9.48D-01
 E= -669.358125881212     Delta-E=       -0.619978552941 Rises=F Damp=F
 DIIS: error= 2.47D-02 at cycle   2 NSaved=   2.
 NSaved= 2 IEnMin= 2 EnMin= -669.358125881212     IErMin= 2 ErrMin= 2.47D-02
 ErrMax= 2.47D-02  0.00D+00 EMaxC= 1.00D-01 BMatC= 2.19D-01 BMatP= 1.18D+00
 IDIUse=3 WtCom= 7.53D-01 WtEn= 2.47D-01
 Coeff-Com:  0.247D+00 0.753D+00
 Coeff-En:   0.000D+00 0.100D+01
 Coeff:      0.186D+00 0.814D+00
 Gap=     0.550 Goal=   None    Shift=    0.000
 RMSDP=1.80D-03 MaxDP=7.96D-02 DE=-6.20D-01 OVMax= 1.21D-01

 Cycle   3  Pass 0  IDiag  1:
 RMSU=  1.42D-03    CP:  9.57D-01  7.57D-01
 E= -669.509976905460     Delta-E=       -0.151851024248 Rises=F Damp=F
 DIIS: error= 1.15D-02 at cycle   3 NSaved=   3.
 NSaved= 3 IEnMin= 3 EnMin= -669.509976905460     IErMin= 3 ErrMin= 1.15D-02
 ErrMax= 1.15D-02  0.00D+00 EMaxC= 1.00D-01 BMatC= 3.41D-02 BMatP= 2.19D-01
 IDIUse=3 WtCom= 8.85D-01 WtEn= 1.15D-01
 Coeff-Com: -0.930D-02 0.261D+00 0.748D+00
 Coeff-En:   0.000D+00 0.000D+00 0.100D+01
 Coeff:     -0.823D-02 0.231D+00 0.778D+00
 Gap=     0.425 Goal=   None    Shift=    0.000
 RMSDP=5.77D-04 MaxDP=3.15D-02 DE=-1.52D-01 OVMax= 4.82D-02

 Cycle   4  Pass 0  IDiag  1:
 RMSU=  3.95D-04    CP:  9.56D-01  8.31D-01  8.19D-01
 E= -669.534040949693     Delta-E=       -0.024064044233 Rises=F Damp=F
 DIIS: error= 3.24D-03 at cycle   4 NSaved=   4.
 NSaved= 4 IEnMin= 4 EnMin= -669.534040949693     IErMin= 4 ErrMin= 3.24D-03
 ErrMax= 3.24D-03  0.00D+00 EMaxC= 1.00D-01 BMatC= 2.65D-03 BMatP= 3.41D-02
 IDIUse=3 WtCom= 9.68D-01 WtEn= 3.24D-02
 Coeff-Com: -0.132D-01 0.422D-01 0.287D+00 0.684D+00
 Coeff-En:   0.000D+00 0.000D+00 0.000D+00 0.100D+01
 Coeff:     -0.128D-01 0.408D-01 0.278D+00 0.694D+00
 Gap=     0.412 Goal=   None    Shift=    0.000
 RMSDP=1.65D-04 MaxDP=7.52D-03 DE=-2.41D-02 OVMax= 1.36D-02

 Cycle   5  Pass 0  IDiag  1:
 RMSU=  9.66D-05    CP:  9.55D-01  8.35D-01  8.87D-01  7.71D-01
 E= -669.536219359671     Delta-E=       -0.002178409978 Rises=F Damp=F
 DIIS: error= 3.73D-04 at cycle   5 NSaved=   5.
 NSaved= 5 IEnMin= 5 EnMin= -669.536219359671     IErMin= 5 ErrMin= 3.73D-04
 ErrMax= 3.73D-04  0.00D+00 EMaxC= 1.00D-01 BMatC= 5.54D-05 BMatP= 2.65D-03
 IDIUse=3 WtCom= 9.96D-01 WtEn= 3.73D-03
 Coeff-Com:  0.204D-02-0.188D-01-0.759D-01-0.409D-01 0.113D+01
 Coeff-En:   0.000D+00 0.000D+00 0.000D+00 0.000D+00 0.100D+01
 Coeff:      0.203D-02-0.187D-01-0.756D-01-0.407D-01 0.113D+01
 Gap=     0.414 Goal=   None    Shift=    0.000
 RMSDP=5.30D-05 MaxDP=1.11D-03 DE=-2.18D-03 OVMax= 4.66D-03

 Cycle   6  Pass 0  IDiag  1:
 RMSU=  2.47D-05    CP:  9.55D-01  8.37D-01  9.01D-01  8.54D-01  1.26D+00
 E= -669.536327474470     Delta-E=       -0.000108114799 Rises=F Damp=F
 DIIS: error= 1.97D-04 at cycle   6 NSaved=   6.
 NSaved= 6 IEnMin= 6 EnMin= -669.536327474470     IErMin= 6 ErrMin= 1.97D-04
 ErrMax= 1.97D-04  0.00D+00 EMaxC= 1.00D-01 BMatC= 5.91D-06 BMatP= 5.54D-05
 IDIUse=3 WtCom= 9.98D-01 WtEn= 1.97D-03
 Coeff-Com:  0.127D-02-0.645D-02-0.340D-01-0.543D-01 0.144D+00 0.949D+00
 Coeff-En:   0.000D+00 0.000D+00 0.000D+00 0.000D+00 0.000D+00 0.100D+01
 Coeff:      0.127D-02-0.644D-02-0.340D-01-0.542D-01 0.144D+00 0.950D+00
 Gap=     0.413 Goal=   None    Shift=    0.000
 RMSDP=1.74D-05 MaxDP=4.85D-04 DE=-1.08D-04 OVMax= 1.69D-03

 Cycle   7  Pass 0  IDiag  1:
 RMSU=  8.79D-06    CP:  9.55D-01  8.37D-01  9.04D-01  8.66D-01  1.39D+00
                    CP:  1.18D+00
 E= -669.536342587801     Delta-E=       -0.000015113331 Rises=F Damp=F
 DIIS: error= 1.07D-04 at cycle   7 NSaved=   7.
 NSaved= 7 IEnMin= 7 EnMin= -669.536342587801     IErMin= 7 ErrMin= 1.07D-04
 ErrMax= 1.07D-04  0.00D+00 EMaxC= 1.00D-01 BMatC= 1.15D-06 BMatP= 5.91D-06
 IDIUse=3 WtCom= 9.99D-01 WtEn= 1.07D-03
 Coeff-Com: -0.261D-03 0.240D-02 0.962D-02 0.722D-02-0.154D+00 0.589D-02
 Coeff-Com:  0.113D+01
 Coeff-En:   0.000D+00 0.000D+00 0.000D+00 0.000D+00 0.000D+00 0.000D+00
 Coeff-En:   0.100D+01
 Coeff:     -0.261D-03 0.240D-02 0.961D-02 0.721D-02-0.154D+00 0.588D-02
 Coeff:      0.113D+01
 Gap=     0.414 Goal=   None    Shift=    0.000
 RMSDP=8.93D-06 MaxDP=2.73D-04 DE=-1.51D-05 OVMax= 1.35D-03

 Initial convergence to 1.0D-05 achieved.  Increase integral accuracy.
 Cycle   8  Pass 1  IDiag  1:
 E= -669.536346561707     Delta-E=       -0.000003973907 Rises=F Damp=F
 DIIS: error= 6.63D-05 at cycle   1 NSaved=   1.
 NSaved= 1 IEnMin= 1 EnMin= -669.536346561707     IErMin= 1 ErrMin= 6.63D-05
 ErrMax= 6.63D-05  0.00D+00 EMaxC= 1.00D-01 BMatC= 3.60D-07 BMatP= 3.60D-07
 IDIUse=1 WtCom= 1.00D+00 WtEn= 0.00D+00
 Coeff-Com:  0.100D+01
 Coeff:      0.100D+01
 Gap=     0.414 Goal=   None    Shift=    0.000
 RMSDP=8.93D-06 MaxDP=2.73D-04 DE=-3.97D-06 OVMax= 5.32D-04

 Cycle   9  Pass 1  IDiag  1:
 RMSU=  8.92D-06    CP:  1.00D+00
 E= -669.536347571031     Delta-E=       -0.000001009324 Rises=F Damp=F
 DIIS: error= 4.02D-05 at cycle   2 NSaved=   2.
 NSaved= 2 IEnMin= 2 EnMin= -669.536347571031     IErMin= 2 ErrMin= 4.02D-05
 ErrMax= 4.02D-05  0.00D+00 EMaxC= 1.00D-01 BMatC= 1.18D-07 BMatP= 3.60D-07
 IDIUse=1 WtCom= 1.00D+00 WtEn= 0.00D+00
 Coeff-Com:  0.243D-01 0.976D+00
 Coeff:      0.243D-01 0.976D+00
 Gap=     0.414 Goal=   None    Shift=    0.000
 RMSDP=2.26D-06 MaxDP=6.14D-05 DE=-1.01D-06 OVMax= 3.76D-04

 Cycle  10  Pass 1  IDiag  1:
 RMSU=  2.04D-06    CP:  1.00D+00  1.11D+00
 E= -669.536347974960     Delta-E=       -0.000000403929 Rises=F Damp=F
 DIIS: error= 3.04D-05 at cycle   3 NSaved=   3.
 NSaved= 3 IEnMin= 3 EnMin= -669.536347974960     IErMin= 3 ErrMin= 3.04D-05
 ErrMax= 3.04D-05  0.00D+00 EMaxC= 1.00D-01 BMatC= 5.53D-08 BMatP= 1.18D-07
 IDIUse=1 WtCom= 1.00D+00 WtEn= 0.00D+00
 Coeff-Com: -0.387D+00 0.131D+00 0.126D+01
 Coeff:     -0.387D+00 0.131D+00 0.126D+01
 Gap=     0.414 Goal=   None    Shift=    0.000
 RMSDP=2.56D-06 MaxDP=6.36D-05 DE=-4.04D-07 OVMax= 3.78D-04

 Cycle  11  Pass 1  IDiag  1:
 RMSU=  1.49D-06    CP:  1.00D+00  1.23D+00  1.86D+00
 E= -669.536348257722     Delta-E=       -0.000000282762 Rises=F Damp=F
 DIIS: error= 9.24D-06 at cycle   4 NSaved=   4.
 NSaved= 4 IEnMin= 4 EnMin= -669.536348257722     IErMin= 4 ErrMin= 9.24D-06
 ErrMax= 9.24D-06  0.00D+00 EMaxC= 1.00D-01 BMatC= 8.44D-09 BMatP= 5.53D-08
 IDIUse=1 WtCom= 1.00D+00 WtEn= 0.00D+00
 Coeff-Com: -0.339D-01-0.267D+00 0.668D-01 0.123D+01
 Coeff:     -0.339D-01-0.267D+00 0.668D-01 0.123D+01
 Gap=     0.414 Goal=   None    Shift=    0.000
 RMSDP=1.41D-06 MaxDP=3.63D-05 DE=-2.83D-07 OVMax= 2.14D-04

 Cycle  12  Pass 1  IDiag  1:
 RMSU=  2.82D-07    CP:  1.00D+00  1.27D+00  2.45D+00  1.38D+00
 E= -669.536348306072     Delta-E=       -0.000000048350 Rises=F Damp=F
 DIIS: error= 2.66D-06 at cycle   5 NSaved=   5.
 NSaved= 5 IEnMin= 5 EnMin= -669.536348306072     IErMin= 5 ErrMin= 2.66D-06
 ErrMax= 2.66D-06  0.00D+00 EMaxC= 1.00D-01 BMatC= 1.44D-09 BMatP= 8.44D-09
 IDIUse=1 WtCom= 1.00D+00 WtEn= 0.00D+00
 Coeff-Com:  0.228D-01-0.130D+00-0.876D-01 0.544D+00 0.650D+00
 Coeff:      0.228D-01-0.130D+00-0.876D-01 0.544D+00 0.650D+00
 Gap=     0.414 Goal=   None    Shift=    0.000
 RMSDP=1.99D-07 MaxDP=6.76D-06 DE=-4.83D-08 OVMax= 2.90D-05

 Cycle  13  Pass 1  IDiag  1:
 RMSU=  9.44D-08    CP:  1.00D+00  1.28D+00  2.52D+00  1.45D+00  7.96D-01
 E= -669.536348307882     Delta-E=       -0.000000001810 Rises=F Damp=F
 DIIS: error= 4.35D-07 at cycle   6 NSaved=   6.
 NSaved= 6 IEnMin= 6 EnMin= -669.536348307882     IErMin= 6 ErrMin= 4.35D-07
 ErrMax= 4.35D-07  0.00D+00 EMaxC= 1.00D-01 BMatC= 4.38D-11 BMatP= 1.44D-09
 IDIUse=1 WtCom= 1.00D+00 WtEn= 0.00D+00
 Coeff-Com: -0.512D-03 0.380D-01 0.852D-02-0.171D+00-0.119D+00 0.124D+01
 Coeff:     -0.512D-03 0.380D-01 0.852D-02-0.171D+00-0.119D+00 0.124D+01
 Gap=     0.414 Goal=   None    Shift=    0.000
 RMSDP=5.69D-08 MaxDP=1.25D-06 DE=-1.81D-09 OVMax= 5.67D-06

 Cycle  14  Pass 1  IDiag  1:
 RMSU=  2.76D-08    CP:  1.00D+00  1.28D+00  2.53D+00  1.46D+00  8.90D-01
                    CP:  1.34D+00
 E= -669.536348308028     Delta-E=       -0.000000000146 Rises=F Damp=F
 DIIS: error= 2.52D-07 at cycle   7 NSaved=   7.
 NSaved= 7 IEnMin= 7 EnMin= -669.536348308028     IErMin= 7 ErrMin= 2.52D-07
 ErrMax= 2.52D-07  0.00D+00 EMaxC= 1.00D-01 BMatC= 7.72D-12 BMatP= 4.38D-11
 IDIUse=1 WtCom= 1.00D+00 WtEn= 0.00D+00
 Coeff-Com: -0.299D-02 0.235D-01 0.130D-01-0.103D+00-0.118D+00 0.268D+00
 Coeff-Com:  0.919D+00
 Coeff:     -0.299D-02 0.235D-01 0.130D-01-0.103D+00-0.118D+00 0.268D+00
 Coeff:      0.919D+00
 Gap=     0.414 Goal=   None    Shift=    0.000
 RMSDP=1.89D-08 MaxDP=5.77D-07 DE=-1.46D-10 OVMax= 2.28D-06

 Cycle  15  Pass 1  IDiag  1:
 RMSU=  9.97D-09    CP:  1.00D+00  1.28D+00  2.53D+00  1.46D+00  9.01D-01
                    CP:  1.47D+00  1.11D+00
 E= -669.536348308067     Delta-E=       -0.000000000039 Rises=F Damp=F
 DIIS: error= 7.88D-08 at cycle   8 NSaved=   8.
 NSaved= 8 IEnMin= 8 EnMin= -669.536348308067     IErMin= 8 ErrMin= 7.88D-08
 ErrMax= 7.88D-08  0.00D+00 EMaxC= 1.00D-01 BMatC= 1.37D-12 BMatP= 7.72D-12
 IDIUse=1 WtCom= 1.00D+00 WtEn= 0.00D+00
 Coeff-Com: -0.377D-03-0.135D-02 0.159D-02 0.560D-02-0.945D-02-0.109D+00
 Coeff-Com:  0.168D+00 0.945D+00
 Coeff:     -0.377D-03-0.135D-02 0.159D-02 0.560D-02-0.945D-02-0.109D+00
 Coeff:      0.168D+00 0.945D+00
 Gap=     0.414 Goal=   None    Shift=    0.000
 RMSDP=6.55D-09 MaxDP=2.68D-07 DE=-3.91D-11 OVMax= 5.42D-07

 SCF Done:  E(RHF) =  -669.536348308     A.U. after   15 cycles
            NFock= 15  Conv=0.65D-08     -V/T= 2.0024
 KE= 6.679559099163D+02 PE=-3.378254580903D+03 EE= 1.133446364961D+03
 Leave Link  502 at Wed May  5 20:18:02 2021, MaxMem=   524288000 cpu:              53.7 elap:              26.9
 (Enter /opt/gaussian/g16_legacy/l801.exe)
 ExpMin= 1.61D-01 ExpMax= 5.48D+03 ExpMxC= 8.25D+02 IAcc=3 IRadAn=         5 AccDes= 0.00D+00
 HarFok:  IExCor=  205 AccDes= 0.00D+00 IRadAn=         5 IDoV=-2 UseB2=F ITyADJ=14
 ICtDFT= 12500011 ScaDFX=  1.000000  1.000000  1.000000  1.000000
 Largest valence mixing into a core orbital is  1.95D-04
 Largest core mixing into a valence orbital is  4.00D-05
 Range of M.O.s used for correlation:    16   263
 NBasis=   263 NAE=    57 NBE=    57 NFC=    15 NFV=     0
 NROrb=    248 NOA=    42 NOB=    42 NVA=   206 NVB=   206
 Leave Link  801 at Wed May  5 20:18:03 2021, MaxMem=   524288000 cpu:               1.1 elap:               0.6
 (Enter /opt/gaussian/g16_legacy/l906.exe)
 FulOut=F Deriv=F AODrv=F NAtomX=    34
   MMem=         113  MDisk=          42 MDiskD=          42
  W3Min=     2275476 MinDsk=     2420380 NBas6D=         263
 NBas2D=       35121    NTT=       34716    LW2=     2000000
    MDV=   523951857 MDiskM=       27563 NBas2p=       23373
 Fully direct method using O(OVN) memory.
 IMap=   1   2   3   4   5   6   7   8   9  10  11  12  13  14  15  16  17  18  19  20
 IMap=  21  22  23  24  25  26  27  28  29  30  31  32  33  34  35  36  37  38  39  40
 IMap=  41  42
 JobTyp=1 Pass  1:  I=   1 to  42 NPSUse=  2 ParTrn=T ParDer=T DoDerP=F.
 Spin components of T(2) and E(2):
     alpha-alpha T2 =       0.9490275622D-01 E2=     -0.2718974071D+00
     alpha-beta  T2 =       0.5259817632D+00 E2=     -0.1547619956D+01
     beta-beta   T2 =       0.9490275622D-01 E2=     -0.2718974071D+00
 The integrals were generated   1 times.
 ANorm=    0.1309880634D+01
 E2 =    -0.2091414770D+01 EUMP2 =    -0.67162776307826D+03
 Leave Link  906 at Wed May  5 20:19:06 2021, MaxMem=   524288000 cpu:             124.9 elap:              62.8
 (Enter /opt/gaussian/g16_legacy/l601.exe)
 Copying SCF densities to generalized density rwf, IOpCl= 0 IROHF=0.

 **********************************************************************

            Population analysis using the SCF density.

 **********************************************************************

 Orbital symmetries:
       Occupied  (A) (A) (A) (A) (A) (A) (A) (A) (A) (A) (A) (A)
                 (A) (A) (A) (A) (A) (A) (A) (A) (A) (A) (A) (A)
                 (A) (A) (A) (A) (A) (A) (A) (A) (A) (A) (A) (A)
                 (A) (A) (A) (A) (A) (A) (A) (A) (A) (A) (A) (A)
                 (A) (A) (A) (A) (A) (A) (A) (A) (A)
       Virtual   (A) (A) (A) (A) (A) (A) (A) (A) (A) (A) (A) (A)
                 (A) (A) (A) (A) (A) (A) (A) (A) (A) (A) (A) (A)
                 (A) (A) (A) (A) (A) (A) (A) (A) (A) (A) (A) (A)
                 (A) (A) (A) (A) (A) (A) (A) (A) (A) (A) (A) (A)
                 (A) (A) (A) (A) (A) (A) (A) (A) (A) (A) (A) (A)
                 (A) (A) (A) (A) (A) (A) (A) (A) (A) (A) (A) (A)
                 (A) (A) (A) (A) (A) (A) (A) (A) (A) (A) (A) (A)
                 (A) (A) (A) (A) (A) (A) (A) (A) (A) (A) (A) (A)
                 (A) (A) (A) (A) (A) (A) (A) (A) (A) (A) (A) (A)
                 (A) (A) (A) (A) (A) (A) (A) (A) (A) (A) (A) (A)
                 (A) (A) (A) (A) (A) (A) (A) (A) (A) (A) (A) (A)
                 (A) (A) (A) (A) (A) (A) (A) (A) (A) (A) (A) (A)
                 (A) (A) (A) (A) (A) (A) (A) (A) (A) (A) (A) (A)
                 (A) (A) (A) (A) (A) (A) (A) (A) (A) (A) (A) (A)
                 (A) (A) (A) (A) (A) (A) (A) (A) (A) (A) (A) (A)
                 (A) (A) (A) (A) (A) (A) (A) (A) (A) (A) (A) (A)
                 (A) (A) (A) (A) (A) (A) (A) (A) (A) (A) (A) (A)
                 (A) (A)
 The electronic state is 1-A.
 Alpha  occ. eigenvalues --  -20.61015 -20.60995 -15.86026 -11.31322 -11.27882
 Alpha  occ. eigenvalues --  -11.27875 -11.27616 -11.26883 -11.26873 -11.20628
 Alpha  occ. eigenvalues --  -11.20305 -11.20271 -11.20260 -11.19870 -11.19484
 Alpha  occ. eigenvalues --   -1.60061  -1.39617  -1.19487  -1.08898  -1.07199
 Alpha  occ. eigenvalues --   -1.04879  -1.02341  -0.95745  -0.94779  -0.86281
 Alpha  occ. eigenvalues --   -0.85797  -0.82579  -0.78439  -0.77633  -0.76958
 Alpha  occ. eigenvalues --   -0.72248  -0.71367  -0.70596  -0.65144  -0.64883
 Alpha  occ. eigenvalues --   -0.63834  -0.62225  -0.59744  -0.58184  -0.56380
 Alpha  occ. eigenvalues --   -0.55386  -0.54057  -0.53212  -0.52970  -0.51531
 Alpha  occ. eigenvalues --   -0.51181  -0.49071  -0.49004  -0.48684  -0.46717
 Alpha  occ. eigenvalues --   -0.45464  -0.45050  -0.44511  -0.44327  -0.42587
 Alpha  occ. eigenvalues --   -0.37465  -0.36478
 Alpha virt. eigenvalues --    0.04886   0.11177   0.16388   0.21300   0.24041
 Alpha virt. eigenvalues --    0.25492   0.27227   0.27888   0.28090   0.28816
 Alpha virt. eigenvalues --    0.29198   0.30914   0.32390   0.32581   0.32813
 Alpha virt. eigenvalues --    0.33302   0.34192   0.35196   0.35393   0.35843
 Alpha virt. eigenvalues --    0.35995   0.36806   0.37428   0.38036   0.40683
 Alpha virt. eigenvalues --    0.41874   0.43235   0.44220   0.46122   0.46565
 Alpha virt. eigenvalues --    0.46830   0.49027   0.49439   0.50951   0.56818
 Alpha virt. eigenvalues --    0.67061   0.68760   0.70199   0.70475   0.70577
 Alpha virt. eigenvalues --    0.71728   0.72827   0.76223   0.77622   0.77791
 Alpha virt. eigenvalues --    0.78618   0.78851   0.79212   0.79373   0.79731
 Alpha virt. eigenvalues --    0.80634   0.81565   0.81894   0.84783   0.86054
 Alpha virt. eigenvalues --    0.87569   0.87853   0.88047   0.88979   0.93534
 Alpha virt. eigenvalues --    0.96484   0.96913   0.97469   0.99678   1.00404
 Alpha virt. eigenvalues --    1.02572   1.02954   1.04751   1.06362   1.07241
 Alpha virt. eigenvalues --    1.08292   1.08432   1.08646   1.09193   1.11955
 Alpha virt. eigenvalues --    1.12649   1.14542   1.15512   1.16979   1.17635
 Alpha virt. eigenvalues --    1.18064   1.18539   1.19272   1.19973   1.20170
 Alpha virt. eigenvalues --    1.21488   1.22002   1.22786   1.22889   1.23302
 Alpha virt. eigenvalues --    1.24122   1.24164   1.24550   1.26018   1.27331
 Alpha virt. eigenvalues --    1.28026   1.29617   1.30725   1.31437   1.33674
 Alpha virt. eigenvalues --    1.37474   1.40654   1.41579   1.46960   1.47591
 Alpha virt. eigenvalues --    1.52422   1.53407   1.57014   1.60850   1.65216
 Alpha virt. eigenvalues --    1.66431   1.67009   1.67204   1.67617   1.68518
 Alpha virt. eigenvalues --    1.72238   1.72545   1.73171   1.73357   1.74033
 Alpha virt. eigenvalues --    1.75400   1.80536   1.82387   1.93927   1.97405
 Alpha virt. eigenvalues --    1.99184   1.99896   2.04381   2.04432   2.06410
 Alpha virt. eigenvalues --    2.09878   2.12277   2.12969   2.14432   2.15926
 Alpha virt. eigenvalues --    2.19033   2.21482   2.21537   2.23676   2.24541
 Alpha virt. eigenvalues --    2.26895   2.26962   2.27050   2.28947   2.32698
 Alpha virt. eigenvalues --    2.34100   2.35129   2.35997   2.37259   2.37539
 Alpha virt. eigenvalues --    2.40743   2.42771   2.43527   2.44302   2.44533
 Alpha virt. eigenvalues --    2.45558   2.46857   2.57956   2.58011   2.58167
 Alpha virt. eigenvalues --    2.58460   2.59409   2.60845   2.68100   2.68852
 Alpha virt. eigenvalues --    2.68974   2.70110   2.78170   2.78812   2.81131
 Alpha virt. eigenvalues --    2.81239   2.83374   2.91591   2.91808   2.92085
 Alpha virt. eigenvalues --    2.92556   2.96209   2.99602   2.99839   3.04551
 Alpha virt. eigenvalues --    3.04653   3.06744   3.10248   3.14959   3.19897
 Alpha virt. eigenvalues --    3.23701   3.25452   3.30120   3.43573   3.52743
 Alpha virt. eigenvalues --    3.76864   4.13320   4.28789   4.38356   4.47834
 Alpha virt. eigenvalues --    4.50551   4.52843   4.56857   4.63869   4.71767
 Alpha virt. eigenvalues --    4.73194   4.76662   4.80976   4.89003   5.01040
 Alpha virt. eigenvalues --    5.08845
          Condensed to atoms (all electrons):
               1          2          3          4          5          6
     1  C    5.089404   0.352051  -0.056566   0.397325   0.395863  -0.043551
     2  C    0.352051   5.056896   0.341198  -0.039494  -0.042261   0.398595
     3  C   -0.056566   0.341198   5.102318  -0.002856  -0.002905  -0.039714
     4  H    0.397325  -0.039494  -0.002856   0.538817  -0.030014  -0.002875
     5  H    0.395863  -0.042261  -0.002905  -0.030014   0.572889   0.004622
     6  H   -0.043551   0.398595  -0.039714  -0.002875   0.004622   0.568560
     7  H   -0.044555   0.398435  -0.040646   0.004380  -0.002964  -0.032401
     8  H   -0.003971  -0.039142   0.391153   0.000155   0.002608   0.004272
     9  H   -0.003813  -0.036365   0.393317   0.002132   0.000146  -0.002761
    10  H    0.004522  -0.036536   0.390689  -0.000040  -0.000062  -0.002633
    11  C    0.351827  -0.051882   0.004116  -0.040682  -0.043065  -0.003382
    12  C   -0.051865   0.004000  -0.000084  -0.003214  -0.003353  -0.000066
    13  C    0.004051  -0.000086   0.000001  -0.000045  -0.000051  -0.000000
    14  H   -0.041153  -0.003316  -0.000053  -0.002748   0.004528   0.002455
    15  H   -0.041463  -0.003245  -0.000060   0.004302  -0.002810   0.000252
    16  H   -0.002894  -0.000064  -0.000001   0.002289   0.000231   0.000017
    17  H   -0.003088  -0.000065  -0.000001   0.000222   0.002439  -0.000003
    18  H   -0.000073  -0.000001  -0.000000  -0.000001   0.000013   0.000000
    19  H   -0.000070  -0.000001  -0.000000   0.000013  -0.000001  -0.000002
    20  H   -0.000086   0.000001  -0.000000   0.000001   0.000001   0.000000
    21  C   -0.000000  -0.000000   0.000000   0.000000   0.000000   0.000000
    22  C   -0.000000   0.000000  -0.000000  -0.000000  -0.000000  -0.000000
    23  C    0.000000   0.000000   0.000000  -0.000000  -0.000000   0.000000
    24  C   -0.000002  -0.000000  -0.000001   0.000020  -0.000000  -0.000000
    25  C    0.000000   0.000000  -0.000001  -0.000001   0.000000  -0.000000
    26  C   -0.000000   0.000000  -0.000000  -0.000000  -0.000000  -0.000000
    27  H    0.000000  -0.000000   0.000000   0.000000   0.000000   0.000000
    28  H    0.000000   0.000000   0.000000  -0.000000   0.000000   0.000000
    29  H    0.000000  -0.000000   0.000000  -0.000000   0.000000   0.000000
    30  H    0.000000  -0.000000   0.000004  -0.000000   0.000000   0.000000
    31  H    0.000000   0.000000  -0.000000  -0.000000  -0.000000  -0.000000
    32  N    0.000019  -0.000001   0.000021  -0.000004   0.000005   0.000000
    33  O   -0.000271  -0.000060  -0.000630   0.001664   0.000027  -0.000002
    34  O   -0.000034   0.000000  -0.000001   0.000250  -0.000001  -0.000000
               7          8          9         10         11         12
     1  C   -0.044555  -0.003971  -0.003813   0.004522   0.351827  -0.051865
     2  C    0.398435  -0.039142  -0.036365  -0.036536  -0.051882   0.004000
     3  C   -0.040646   0.391153   0.393317   0.390689   0.004116  -0.000084
     4  H    0.004380   0.000155   0.002132  -0.000040  -0.040682  -0.003214
     5  H   -0.002964   0.002608   0.000146  -0.000062  -0.043065  -0.003353
     6  H   -0.032401   0.004272  -0.002761  -0.002633  -0.003382  -0.000066
     7  H    0.575617  -0.002845   0.004020  -0.002680  -0.003439  -0.000069
     8  H   -0.002845   0.555879  -0.027700  -0.029027  -0.000066  -0.000001
     9  H    0.004020  -0.027700   0.516956  -0.027065  -0.000048  -0.000001
    10  H   -0.002680  -0.029027  -0.027065   0.553179  -0.000089   0.000001
    11  C   -0.003439  -0.000066  -0.000048  -0.000089   5.087955   0.353277
    12  C   -0.000069  -0.000001  -0.000001   0.000001   0.353277   5.060458
    13  C   -0.000000  -0.000000   0.000000  -0.000000  -0.057534   0.340178
    14  H    0.000251  -0.000001   0.000012   0.000001   0.395519  -0.041988
    15  H    0.002517   0.000014  -0.000002   0.000001   0.394742  -0.042457
    16  H   -0.000003   0.000000  -0.000002   0.000000  -0.042946   0.399844
    17  H    0.000018  -0.000002   0.000000   0.000000  -0.043767   0.398601
    18  H   -0.000002   0.000000  -0.000000  -0.000000  -0.003737  -0.038896
    19  H    0.000000  -0.000000   0.000000  -0.000000  -0.003733  -0.038731
    20  H    0.000000  -0.000000  -0.000000   0.000000   0.004415  -0.035977
    21  C    0.000000   0.000000   0.000000  -0.000000   0.000000  -0.000000
    22  C   -0.000000  -0.000000  -0.000000   0.000000   0.000000   0.000000
    23  C    0.000000  -0.000000  -0.000000  -0.000000  -0.000000   0.000000
    24  C    0.000000  -0.000000   0.000011   0.000000   0.000000   0.000000
    25  C   -0.000000  -0.000001  -0.000003   0.000000  -0.000000   0.000000
    26  C   -0.000000   0.000000  -0.000000   0.000000  -0.000000  -0.000000
    27  H    0.000000   0.000000   0.000000  -0.000000  -0.000000   0.000000
    28  H    0.000000   0.000000  -0.000000  -0.000000  -0.000000  -0.000000
    29  H    0.000000   0.000000   0.000000  -0.000000  -0.000000   0.000000
    30  H    0.000000   0.000006   0.000002  -0.000000  -0.000000   0.000000
    31  H   -0.000000  -0.000000  -0.000000   0.000000  -0.000000   0.000000
    32  N    0.000000   0.000005  -0.000047  -0.000000  -0.000000  -0.000000
    33  O   -0.000001   0.000061   0.002095   0.000013   0.000007  -0.000000
    34  O   -0.000000   0.000000  -0.000001   0.000000   0.000000  -0.000000
              13         14         15         16         17         18
     1  C    0.004051  -0.041153  -0.041463  -0.002894  -0.003088  -0.000073
     2  C   -0.000086  -0.003316  -0.003245  -0.000064  -0.000065  -0.000001
     3  C    0.000001  -0.000053  -0.000060  -0.000001  -0.000001  -0.000000
     4  H   -0.000045  -0.002748   0.004302   0.002289   0.000222  -0.000001
     5  H   -0.000051   0.004528  -0.002810   0.000231   0.002439   0.000013
     6  H   -0.000000   0.002455   0.000252   0.000017  -0.000003   0.000000
     7  H   -0.000000   0.000251   0.002517  -0.000003   0.000018  -0.000002
     8  H   -0.000000  -0.000001   0.000014   0.000000  -0.000002   0.000000
     9  H    0.000000   0.000012  -0.000002  -0.000002   0.000000  -0.000000
    10  H   -0.000000   0.000001   0.000001   0.000000   0.000000  -0.000000
    11  C   -0.057534   0.395519   0.394742  -0.042946  -0.043767  -0.003737
    12  C    0.340178  -0.041988  -0.042457   0.399844   0.398601  -0.038896
    13  C    5.099035  -0.002968  -0.002984  -0.039893  -0.040484   0.390753
    14  H   -0.002968   0.569410  -0.032065  -0.002977   0.004611   0.000163
    15  H   -0.002984  -0.032065   0.574399   0.004576  -0.002999   0.002658
    16  H   -0.039893  -0.002977   0.004576   0.557343  -0.031423   0.004204
    17  H   -0.040484   0.004611  -0.002999  -0.031423   0.568623  -0.002907
    18  H    0.390753   0.000163   0.002658   0.004204  -0.002907   0.552484
    19  H    0.391175   0.002641   0.000165  -0.002872   0.004255  -0.029336
    20  H    0.393709  -0.000059  -0.000060  -0.002484  -0.002510  -0.027932
    21  C   -0.000000  -0.000000  -0.000000   0.000000  -0.000000   0.000000
    22  C   -0.000000  -0.000000  -0.000000  -0.000000  -0.000000  -0.000000
    23  C   -0.000000   0.000000   0.000000   0.000000   0.000000  -0.000000
    24  C    0.000000  -0.000000   0.000000  -0.000000  -0.000000   0.000000
    25  C   -0.000000   0.000000   0.000000   0.000000   0.000000  -0.000000
    26  C    0.000000  -0.000000   0.000000   0.000000  -0.000000  -0.000000
    27  H   -0.000000   0.000000   0.000000   0.000000   0.000000   0.000000
    28  H   -0.000000   0.000000   0.000000   0.000000   0.000000  -0.000000
    29  H   -0.000000   0.000000   0.000000   0.000000   0.000000   0.000000
    30  H   -0.000000   0.000000   0.000000   0.000000   0.000000  -0.000000
    31  H   -0.000000   0.000000   0.000000  -0.000000   0.000000  -0.000000
    32  N   -0.000000   0.000000   0.000000   0.000000   0.000000   0.000000
    33  O    0.000000  -0.000000  -0.000000  -0.000001  -0.000000   0.000000
    34  O    0.000000  -0.000000   0.000000   0.000003  -0.000000   0.000000
              19         20         21         22         23         24
     1  C   -0.000070  -0.000086  -0.000000  -0.000000   0.000000  -0.000002
     2  C   -0.000001   0.000001  -0.000000   0.000000   0.000000  -0.000000
     3  C   -0.000000  -0.000000   0.000000  -0.000000   0.000000  -0.000001
     4  H    0.000013   0.000001   0.000000  -0.000000  -0.000000   0.000020
     5  H   -0.000001   0.000001   0.000000  -0.000000  -0.000000  -0.000000
     6  H   -0.000002   0.000000   0.000000  -0.000000   0.000000  -0.000000
     7  H    0.000000   0.000000   0.000000  -0.000000   0.000000   0.000000
     8  H   -0.000000  -0.000000   0.000000  -0.000000  -0.000000  -0.000000
     9  H    0.000000  -0.000000   0.000000  -0.000000  -0.000000   0.000011
    10  H   -0.000000   0.000000  -0.000000   0.000000  -0.000000   0.000000
    11  C   -0.003733   0.004415   0.000000   0.000000  -0.000000   0.000000
    12  C   -0.038731  -0.035977  -0.000000   0.000000   0.000000   0.000000
    13  C    0.391175   0.393709  -0.000000  -0.000000  -0.000000   0.000000
    14  H    0.002641  -0.000059  -0.000000  -0.000000   0.000000  -0.000000
    15  H    0.000165  -0.000060  -0.000000  -0.000000   0.000000   0.000000
    16  H   -0.002872  -0.002484   0.000000  -0.000000   0.000000  -0.000000
    17  H    0.004255  -0.002510  -0.000000  -0.000000   0.000000  -0.000000
    18  H   -0.029336  -0.027932   0.000000  -0.000000  -0.000000   0.000000
    19  H    0.549804  -0.027725  -0.000000  -0.000000   0.000000  -0.000000
    20  H   -0.027725   0.541642   0.000000   0.000000  -0.000000   0.000000
    21  C   -0.000000   0.000000   4.875732   0.542459  -0.045705  -0.028599
    22  C   -0.000000   0.000000   0.542459   4.932017   0.523203  -0.040254
    23  C    0.000000  -0.000000  -0.045705   0.523203   4.917955   0.548916
    24  C   -0.000000   0.000000  -0.028599  -0.040254   0.548916   4.822744
    25  C    0.000000  -0.000000  -0.045784  -0.030041  -0.053025   0.547587
    26  C    0.000000  -0.000000   0.542534  -0.043878  -0.030055  -0.040325
    27  H    0.000000   0.000000   0.381302  -0.027962   0.002171   0.000219
    28  H    0.000000  -0.000000  -0.027655   0.382577  -0.027352   0.001573
    29  H    0.000000   0.000000   0.001925  -0.023999   0.368549  -0.019674
    30  H    0.000000   0.000000   0.001922  -0.000058   0.002549  -0.019665
    31  H    0.000000  -0.000000  -0.027644   0.002330   0.000203   0.001552
    32  N    0.000000   0.000000   0.000008   0.001499  -0.044436   0.242689
    33  O   -0.000000   0.000000  -0.000004  -0.000027   0.003610  -0.086513
    34  O   -0.000000  -0.000000  -0.000004   0.000773   0.003823  -0.087943
              25         26         27         28         29         30
     1  C    0.000000  -0.000000   0.000000   0.000000   0.000000   0.000000
     2  C    0.000000   0.000000  -0.000000   0.000000  -0.000000  -0.000000
     3  C   -0.000001  -0.000000   0.000000   0.000000   0.000000   0.000004
     4  H   -0.000001  -0.000000   0.000000  -0.000000  -0.000000  -0.000000
     5  H    0.000000  -0.000000   0.000000   0.000000   0.000000   0.000000
     6  H   -0.000000  -0.000000   0.000000   0.000000   0.000000   0.000000
     7  H   -0.000000  -0.000000   0.000000   0.000000   0.000000   0.000000
     8  H   -0.000001   0.000000   0.000000   0.000000   0.000000   0.000006
     9  H   -0.000003  -0.000000   0.000000  -0.000000   0.000000   0.000002
    10  H    0.000000   0.000000  -0.000000  -0.000000  -0.000000  -0.000000
    11  C   -0.000000  -0.000000  -0.000000  -0.000000  -0.000000  -0.000000
    12  C    0.000000  -0.000000   0.000000  -0.000000   0.000000   0.000000
    13  C   -0.000000   0.000000  -0.000000  -0.000000  -0.000000  -0.000000
    14  H    0.000000  -0.000000   0.000000   0.000000   0.000000   0.000000
    15  H    0.000000   0.000000   0.000000   0.000000   0.000000   0.000000
    16  H    0.000000   0.000000   0.000000   0.000000   0.000000   0.000000
    17  H    0.000000  -0.000000   0.000000   0.000000   0.000000   0.000000
    18  H   -0.000000  -0.000000   0.000000  -0.000000   0.000000  -0.000000
    19  H    0.000000   0.000000   0.000000   0.000000   0.000000   0.000000
    20  H   -0.000000  -0.000000   0.000000  -0.000000   0.000000   0.000000
    21  C   -0.045784   0.542534   0.381302  -0.027655   0.001925   0.001922
    22  C   -0.030041  -0.043878  -0.027962   0.382577  -0.023999  -0.000058
    23  C   -0.053025  -0.030055   0.002171  -0.027352   0.368549   0.002549
    24  C    0.547587  -0.040325   0.000219   0.001573  -0.019674  -0.019665
    25  C    4.919414   0.523031   0.002171   0.000205   0.002553   0.368508
    26  C    0.523031   4.932125  -0.027951   0.002327  -0.000059  -0.023977
    27  H    0.002171  -0.027951   0.446473  -0.001193  -0.000071  -0.000071
    28  H    0.000205   0.002327  -0.001193   0.446876  -0.001110   0.000007
    29  H    0.002553  -0.000059  -0.000071  -0.001110   0.392471  -0.000075
    30  H    0.368508  -0.023977  -0.000071   0.000007  -0.000075   0.392008
    31  H   -0.027304   0.382566  -0.001192  -0.000093   0.000007  -0.001105
    32  N   -0.044360   0.001512   0.000002  -0.000050  -0.005338  -0.005326
    33  O    0.004075   0.000771   0.000000   0.000000   0.000046   0.008912
    34  O    0.003778  -0.000028   0.000000  -0.000001   0.008941   0.000047
              31         32         33         34
     1  C    0.000000   0.000019  -0.000271  -0.000034
     2  C    0.000000  -0.000001  -0.000060   0.000000
     3  C   -0.000000   0.000021  -0.000630  -0.000001
     4  H   -0.000000  -0.000004   0.001664   0.000250
     5  H   -0.000000   0.000005   0.000027  -0.000001
     6  H   -0.000000   0.000000  -0.000002  -0.000000
     7  H   -0.000000   0.000000  -0.000001  -0.000000
     8  H   -0.000000   0.000005   0.000061   0.000000
     9  H   -0.000000  -0.000047   0.002095  -0.000001
    10  H    0.000000  -0.000000   0.000013   0.000000
    11  C   -0.000000  -0.000000   0.000007   0.000000
    12  C    0.000000  -0.000000  -0.000000  -0.000000
    13  C   -0.000000  -0.000000   0.000000   0.000000
    14  H    0.000000   0.000000  -0.000000  -0.000000
    15  H    0.000000   0.000000  -0.000000   0.000000
    16  H   -0.000000   0.000000  -0.000001   0.000003
    17  H    0.000000   0.000000  -0.000000  -0.000000
    18  H   -0.000000   0.000000   0.000000   0.000000
    19  H    0.000000   0.000000  -0.000000  -0.000000
    20  H   -0.000000   0.000000   0.000000  -0.000000
    21  C   -0.027644   0.000008  -0.000004  -0.000004
    22  C    0.002330   0.001499  -0.000027   0.000773
    23  C    0.000203  -0.044436   0.003610   0.003823
    24  C    0.001552   0.242689  -0.086513  -0.087943
    25  C   -0.027304  -0.044360   0.004075   0.003778
    26  C    0.382566   0.001512   0.000771  -0.000028
    27  H   -0.001192   0.000002   0.000000   0.000000
    28  H   -0.000093  -0.000050   0.000000  -0.000001
    29  H    0.000007  -0.005338   0.000046   0.008941
    30  H   -0.001105  -0.005326   0.008912   0.000047
    31  H    0.446736  -0.000049  -0.000001   0.000000
    32  N   -0.000049   5.739875   0.307338   0.314109
    33  O   -0.000001   0.307338   8.309796  -0.088226
    34  O    0.000000   0.314109  -0.088226   8.304480
 Mulliken charges:
               1
     1  C   -0.301607
     2  C   -0.298659
     3  C   -0.479299
     4  H    0.170406
     5  H    0.144114
     6  H    0.148616
     7  H    0.144365
     8  H    0.148603
     9  H    0.179116
    10  H    0.149726
    11  C   -0.297488
    12  C   -0.299658
    13  C   -0.474856
    14  H    0.147736
    15  H    0.144520
    16  H    0.157052
    17  H    0.148478
    18  H    0.152609
    19  H    0.154417
    20  H    0.157065
    21  C   -0.170489
    22  C   -0.218639
    23  C   -0.170406
    24  C    0.157665
    25  C   -0.170804
    26  C   -0.218595
    27  H    0.226101
    28  H    0.223888
    29  H    0.275834
    30  H    0.276313
    31  H    0.223995
    32  N    0.492529
    33  O   -0.462681
    34  O   -0.459966
 Sum of Mulliken charges =  -0.00000
 Mulliken charges with hydrogens summed into heavy atoms:
               1
     1  C    0.012912
     2  C   -0.005679
     3  C   -0.001854
    11  C   -0.005232
    12  C    0.005871
    13  C   -0.010766
    21  C    0.055613
    22  C    0.005249
    23  C    0.105429
    24  C    0.157665
    25  C    0.105509
    26  C    0.005400
    32  N    0.492529
    33  O   -0.462681
    34  O   -0.459966
 Electronic spatial extent (au):  <R**2>=           6775.7388
 Charge=             -0.0000 electrons
 Dipole moment (field-independent basis, Debye):
    X=              5.1295    Y=             -0.5302    Z=             -2.0368  Tot=              5.5445
 Quadrupole moment (field-independent basis, Debye-Ang):
   XX=            -71.6946   YY=            -92.6137   ZZ=            -94.3459
   XY=             -3.0298   XZ=             -4.8606   YZ=             -2.5222
 Traceless Quadrupole moment (field-independent basis, Debye-Ang):
   XX=             14.5235   YY=             -6.3956   ZZ=             -8.1279
   XY=             -3.0298   XZ=             -4.8606   YZ=             -2.5222
 Octapole moment (field-independent basis, Debye-Ang**2):
  XXX=            155.3812  YYY=             -5.4333  ZZZ=              5.0284  XYY=             25.4533
  XXY=            -16.3141  XXZ=            -24.0341  XZZ=              4.6869  YZZ=              6.6369
  YYZ=              2.6252  XYZ=            -11.2276
 Hexadecapole moment (field-independent basis, Debye-Ang**3):
 XXXX=          -7011.5326 YYYY=          -1477.9512 ZZZZ=           -422.1919 XXXY=           -173.4915
 XXXZ=           -184.6287 YYYX=            -29.4444 YYYZ=            -20.7474 ZZZX=             -1.9327
 ZZZY=             -8.7190 XXYY=          -1474.6808 XXZZ=          -1289.3932 YYZZ=           -310.7684
 XXYZ=            -59.9088 YYXZ=              0.8338 ZZXY=             15.4192
 N-N= 9.073159577177D+02 E-N=-3.378254576355D+03  KE= 6.679559099163D+02
 Leave Link  601 at Wed May  5 20:19:06 2021, MaxMem=   524288000 cpu:               0.4 elap:               0.4
 (Enter /opt/gaussian/g16_legacy/l9999.exe)
 1\1\GINC-TRUENO92\SP\RMP2-FC\6-31G(d)\C12H19N1O2\JRAMOS\05-May-2021\0\
 \#p 6-31g* mp2\\Input file generated by CHIRIPA (05-May-2021 14:53:16)
 \\0,1\C,0,-0.666,-0.374,0.\C,0,-1.882,0.553,0.\C,0,-3.207,-0.21,0.\H,0
 ,-0.713,-1.03,-0.88\H,0,-0.713,-1.029,0.881\H,0,-1.832,1.207,-0.88\H,0
 ,-1.832,1.207,0.88\H,0,-3.283,-0.85,0.885\H,0,-3.283,-0.85,-0.885\H,0,
 -4.063,0.472,0.\C,0,0.666,0.374,0.\C,0,1.882,-0.553,0.\C,0,3.207,0.21,
 0.\H,0,0.713,1.029,-0.881\H,0,0.713,1.03,0.88\H,0,1.832,-1.207,-0.88\H
 ,0,1.832,-1.207,0.88\H,0,3.283,0.85,0.885\H,0,3.283,0.85,-0.885\H,0,4.
 063,-0.472,0.\C,0,-2.952654,-8.493312,-0.863509\C,0,-1.984784,-8.23605
 9,-1.840019\C,0,-1.659116,-6.921758,-2.188013\C,0,-2.323936,-5.884072,
 -1.536466\C,0,-3.292776,-6.108101,-0.559507\C,0,-3.602415,-7.430386,-0
 .227491\H,0,-3.199415,-9.517394,-0.599385\H,0,-1.478558,-9.059568,-2.3
 35612\H,0,-0.91382,-6.694119,-2.940431\H,0,-3.780405,-5.266394,-0.0828
 87\H,0,-4.354494,-7.627186,0.531253\N,0,-1.98765,-4.488454,-1.896414\O
 ,0,-2.587712,-3.591806,-1.3077\O,0,-1.130375,-4.317644,-2.76044\\Versi
 on=EM64L-G16RevA.03\State=1-A\HF=-669.5363483\MP2=-671.6277631\RMSD=6.
 546e-09\PG=C01 [X(C12H19N1O2)]\\@


            THE IRISH PIG
 'TWAS AN EVENING IN NOVEMBER,
 AS I VERY WELL REMEMBER
 I WAS STROLLING DOWN THE STREET IN DRUNKEN PRIDE,
 BUT MY KNEES WERE ALL A'FLUTTER
 SO I LANDED IN THE GUTTER,
 AND A PIG CAME UP AND LAY DOWN BY MY SIDE.

 YES, I LAY THERE IN THE GUTTER
 THINKING THOUGHTS I COULD NOT UTTER
 WHEN A COLLEEN PASSING BY DID SOFTLY SAY,
 'YE CAN TELL A MAN THAT BOOZES
 BY THE COMPANY THAT HE CHOOSES.' -
 AT THAT, THE PIG GOT UP AND WALKED AWAY!
     -- THE ECONOMIST, AUGUST 23, 1986
 Job cpu time:       0 days  0 hours  3 minutes  8.5 seconds.
 Elapsed time:       0 days  0 hours  1 minutes 35.6 seconds.
 File lengths (MBytes):  RWF=     43 Int=      0 D2E=      0 Chk=      6 Scr=      1
 Normal termination of Gaussian 16 at Wed May  5 20:19:07 2021.
