 Entering Gaussian System, Link 0=/opt/gaussian/g16_legacy/g16
 Input=gaussian_04204_2_2.com
 Output=gaussian_04204_2_2.log
 Initial command:
 /opt/gaussian/g16_legacy/l1.exe "/scratch-local/jramos/2601816/Gau-11119.inp" -scrdir="/scratch-local/jramos/2601816/"
 Entering Link 1 = /opt/gaussian/g16_legacy/l1.exe PID=     11120.
  
 Copyright (c) 1988,1990,1992,1993,1995,1998,2003,2009,2016,
            Gaussian, Inc.  All Rights Reserved.
  
 This is part of the Gaussian(R) 16 program.  It is based on
 the Gaussian(R) 09 system (copyright 2009, Gaussian, Inc.),
 the Gaussian(R) 03 system (copyright 2003, Gaussian, Inc.),
 the Gaussian(R) 98 system (copyright 1998, Gaussian, Inc.),
 the Gaussian(R) 94 system (copyright 1995, Gaussian, Inc.),
 the Gaussian 92(TM) system (copyright 1992, Gaussian, Inc.),
 the Gaussian 90(TM) system (copyright 1990, Gaussian, Inc.),
 the Gaussian 88(TM) system (copyright 1988, Gaussian, Inc.),
 the Gaussian 86(TM) system (copyright 1986, Carnegie Mellon
 University), and the Gaussian 82(TM) system (copyright 1983,
 Carnegie Mellon University). Gaussian is a federally registered
 trademark of Gaussian, Inc.
  
 This software contains proprietary and confidential information,
 including trade secrets, belonging to Gaussian, Inc.
  
 This software is provided under written license and may be
 used, copied, transmitted, or stored only in accord with that
 written license.
  
 The following legend is applicable only to US Government
 contracts under FAR:
  
                    RESTRICTED RIGHTS LEGEND
  
 Use, reproduction and disclosure by the US Government is
 subject to restrictions as set forth in subparagraphs (a)
 and (c) of the Commercial Computer Software - Restricted
 Rights clause in FAR 52.227-19.
  
 Gaussian, Inc.
 340 Quinnipiac St., Bldg. 40, Wallingford CT 06492
  
  
 ---------------------------------------------------------------
 Warning -- This program may not be used in any manner that
 competes with the business of Gaussian, Inc. or will provide
 assistance to any competitor of Gaussian, Inc.  The licensee
 of this program is prohibited from giving any competitor of
 Gaussian, Inc. access to this program.  By using this program,
 the user acknowledges that Gaussian, Inc. is engaged in the
 business of creating and licensing software in the field of
 computational chemistry and represents and warrants to the
 licensee that it is not a competitor of Gaussian, Inc. and that
 it will not use this program in any manner prohibited above.
 ---------------------------------------------------------------
  

 Cite this work as:
 Gaussian 16, Revision A.03,
 M. J. Frisch, G. W. Trucks, H. B. Schlegel, G. E. Scuseria, 
 M. A. Robb, J. R. Cheeseman, G. Scalmani, V. Barone, 
 G. A. Petersson, H. Nakatsuji, X. Li, M. Caricato, A. V. Marenich, 
 J. Bloino, B. G. Janesko, R. Gomperts, B. Mennucci, H. P. Hratchian, 
 J. V. Ortiz, A. F. Izmaylov, J. L. Sonnenberg, D. Williams-Young, 
 F. Ding, F. Lipparini, F. Egidi, J. Goings, B. Peng, A. Petrone, 
 T. Henderson, D. Ranasinghe, V. G. Zakrzewski, J. Gao, N. Rega, 
 G. Zheng, W. Liang, M. Hada, M. Ehara, K. Toyota, R. Fukuda, 
 J. Hasegawa, M. Ishida, T. Nakajima, Y. Honda, O. Kitao, H. Nakai, 
 T. Vreven, K. Throssell, J. A. Montgomery, Jr., J. E. Peralta, 
 F. Ogliaro, M. J. Bearpark, J. J. Heyd, E. N. Brothers, K. N. Kudin, 
 V. N. Staroverov, T. A. Keith, R. Kobayashi, J. Normand, 
 K. Raghavachari, A. P. Rendell, J. C. Burant, S. S. Iyengar, 
 J. Tomasi, M. Cossi, J. M. Millam, M. Klene, C. Adamo, R. Cammi, 
 J. W. Ochterski, R. L. Martin, K. Morokuma, O. Farkas, 
 J. B. Foresman, and D. J. Fox, Gaussian, Inc., Wallingford CT, 2016.
 
 ******************************************
 Gaussian 16:  EM64L-G16RevA.03 25-Dec-2016
                 6-May-2021 
 ******************************************
 %chk=gaussian_04204_2_2.chk
 %nproc=2
 Will use up to    2 processors via shared memory.
 %mem=4000Mb
 -------------
 #p 6-31g* mp2
 -------------
 1/38=1,172=1/1;
 2/12=2,17=6,18=5,40=1/2;
 3/5=1,6=6,7=1,11=9,25=1,30=1/1,2,3;
 4//1;
 5/5=2,38=5/2;
 8/10=2/1;
 9/16=-3/6;
 6/7=2,8=2,9=2,10=2/1;
 99/5=1,9=1/99;
 Leave Link    1 at Thu May  6 21:19:08 2021, MaxMem=   524288000 cpu:               0.1 elap:               0.1
 (Enter /opt/gaussian/g16_legacy/l101.exe)
 ------------------------------------------------------
 Input file generated by CHIRIPA (05-May-2021 14:57:26)
 ------------------------------------------------------
 Symbolic Z-matrix:
 Charge =  0 Multiplicity = 1
 C                     1.91414   0.        0. 
 C                     1.21414   1.211     0. 
 C                    -0.18386   1.223     0. 
 C                    -0.85286   0.        0. 
 C                    -0.18386  -1.223     0. 
 C                     1.21414  -1.211     0. 
 H                     3.00014   0.        0. 
 H                     1.75514   2.153     0. 
 H                    -0.75086   2.146     0. 
 H                    -0.75086  -2.146     0. 
 H                     1.75514  -2.153     0. 
 N                    -2.33286   0.        0. 
 O                    -2.89886  -1.091     0. 
 O                    -2.89886   1.091     0. 
 C                    -1.20173   4.86136  -4.92977 
 C                    -1.02092   3.47434  -4.92866 
 C                     0.10941   2.90615  -4.33363 
 C                     1.04307   3.75849  -3.7462 
 C                     0.89125   5.14413  -3.7311 
 C                    -0.24675   5.69037  -4.33204 
 H                    -2.08277   5.29422  -5.39431 
 H                    -1.76092   2.82809  -5.39212 
 H                     0.27437   1.83564  -4.31846 
 H                     1.64627   5.76264  -3.2612 
 H                    -0.38454   6.7679   -4.33141 
 N                     2.24376   3.16859  -3.11314 
 O                     3.05167   3.94121  -2.60228 
 O                     2.35421   1.94477  -3.13978 
 
 ITRead=  0  0  0  0  0  0  0  0  0  0  0  0  0  0  0  0  0  0  0  0
 ITRead=  0  0  0  0  0  0  0  0
 MicOpt= -1 -1 -1 -1 -1 -1 -1 -1 -1 -1 -1 -1 -1 -1 -1 -1 -1 -1 -1 -1
 MicOpt= -1 -1 -1 -1 -1 -1 -1 -1
 NAtoms=     28 NQM=       28 NQMF=       0 NMMI=      0 NMMIF=      0
                NMic=       0 NMicF=      0.
                    Isotopes and Nuclear Properties:
 (Nuclear quadrupole moments (NQMom) in fm**2, nuclear magnetic moments (NMagM)
  in nuclear magnetons)

  Atom         1           2           3           4           5           6           7           8           9          10
 IAtWgt=          12          12          12          12          12          12           1           1           1           1
 AtmWgt=  12.0000000  12.0000000  12.0000000  12.0000000  12.0000000  12.0000000   1.0078250   1.0078250   1.0078250   1.0078250
 NucSpn=           0           0           0           0           0           0           1           1           1           1
 AtZEff=  -0.0000000  -0.0000000  -0.0000000  -0.0000000  -0.0000000  -0.0000000  -0.0000000  -0.0000000  -0.0000000  -0.0000000
 NQMom=    0.0000000   0.0000000   0.0000000   0.0000000   0.0000000   0.0000000   0.0000000   0.0000000   0.0000000   0.0000000
 NMagM=    0.0000000   0.0000000   0.0000000   0.0000000   0.0000000   0.0000000   2.7928460   2.7928460   2.7928460   2.7928460
 AtZNuc=   6.0000000   6.0000000   6.0000000   6.0000000   6.0000000   6.0000000   1.0000000   1.0000000   1.0000000   1.0000000

  Atom        11          12          13          14          15          16          17          18          19          20
 IAtWgt=           1          14          16          16          12          12          12          12          12          12
 AtmWgt=   1.0078250  14.0030740  15.9949146  15.9949146  12.0000000  12.0000000  12.0000000  12.0000000  12.0000000  12.0000000
 NucSpn=           1           2           0           0           0           0           0           0           0           0
 AtZEff=  -0.0000000  -0.0000000  -0.0000000  -0.0000000  -0.0000000  -0.0000000  -0.0000000  -0.0000000  -0.0000000  -0.0000000
 NQMom=    0.0000000   2.0440000   0.0000000   0.0000000   0.0000000   0.0000000   0.0000000   0.0000000   0.0000000   0.0000000
 NMagM=    2.7928460   0.4037610   0.0000000   0.0000000   0.0000000   0.0000000   0.0000000   0.0000000   0.0000000   0.0000000
 AtZNuc=   1.0000000   7.0000000   8.0000000   8.0000000   6.0000000   6.0000000   6.0000000   6.0000000   6.0000000   6.0000000

  Atom        21          22          23          24          25          26          27          28
 IAtWgt=           1           1           1           1           1          14          16          16
 AtmWgt=   1.0078250   1.0078250   1.0078250   1.0078250   1.0078250  14.0030740  15.9949146  15.9949146
 NucSpn=           1           1           1           1           1           2           0           0
 AtZEff=  -0.0000000  -0.0000000  -0.0000000  -0.0000000  -0.0000000  -0.0000000  -0.0000000  -0.0000000
 NQMom=    0.0000000   0.0000000   0.0000000   0.0000000   0.0000000   2.0440000   0.0000000   0.0000000
 NMagM=    2.7928460   2.7928460   2.7928460   2.7928460   2.7928460   0.4037610   0.0000000   0.0000000
 AtZNuc=   1.0000000   1.0000000   1.0000000   1.0000000   1.0000000   7.0000000   8.0000000   8.0000000
 Leave Link  101 at Thu May  6 21:19:09 2021, MaxMem=   524288000 cpu:               0.3 elap:               0.2
 (Enter /opt/gaussian/g16_legacy/l202.exe)
                          Input orientation:                          
 ---------------------------------------------------------------------
 Center     Atomic      Atomic             Coordinates (Angstroms)
 Number     Number       Type             X           Y           Z
 ---------------------------------------------------------------------
      1          6           0        1.914143    0.000000    0.000000
      2          6           0        1.214143    1.211000    0.000000
      3          6           0       -0.183857    1.223000    0.000000
      4          6           0       -0.852857    0.000000    0.000000
      5          6           0       -0.183857   -1.223000    0.000000
      6          6           0        1.214143   -1.211000    0.000000
      7          1           0        3.000143    0.000000    0.000000
      8          1           0        1.755143    2.153000    0.000000
      9          1           0       -0.750857    2.146000    0.000000
     10          1           0       -0.750857   -2.146000    0.000000
     11          1           0        1.755143   -2.153000    0.000000
     12          7           0       -2.332857    0.000000    0.000000
     13          8           0       -2.898857   -1.091000    0.000000
     14          8           0       -2.898857    1.091000    0.000000
     15          6           0       -1.201725    4.861364   -4.929774
     16          6           0       -1.020920    3.474343   -4.928661
     17          6           0        0.109406    2.906146   -4.333628
     18          6           0        1.043071    3.758489   -3.746200
     19          6           0        0.891250    5.144134   -3.731097
     20          6           0       -0.246747    5.690372   -4.332041
     21          1           0       -2.082769    5.294224   -5.394306
     22          1           0       -1.760922    2.828085   -5.392118
     23          1           0        0.274369    1.835643   -4.318462
     24          1           0        1.646273    5.762644   -3.261199
     25          1           0       -0.384543    6.767895   -4.331406
     26          7           0        2.243756    3.168588   -3.113136
     27          8           0        3.051667    3.941210   -2.602282
     28          8           0        2.354208    1.944771   -3.139782
 ---------------------------------------------------------------------
                    Distance matrix (angstroms):
                    1          2          3          4          5
     1  C    0.000000
     2  C    1.398757   0.000000
     3  C    2.428443   1.398052   0.000000
     4  C    2.767000   2.395623   1.394019   0.000000
     5  C    2.428443   2.806913   2.446000   1.394019   0.000000
     6  C    1.398757   2.422000   2.806913   2.395623   1.398052
     7  H    1.086000   2.157850   3.410804   3.853000   3.410804
     8  H    2.158863   1.086299   2.150493   3.381874   3.893212
     9  H    3.421628   2.176109   1.083244   2.148423   3.416380
    10  H    3.421628   3.889817   3.416380   2.148423   1.083244
    11  H    2.158863   3.407224   3.893212   3.381874   2.150493
    12  N    4.247000   3.748030   2.472636   1.480000   2.472636
    13  O    4.935104   4.713382   3.567327   2.318706   2.718207
    14  O    4.935104   4.114750   2.718207   2.318706   3.567327
    15  C    7.592375   6.592742   6.210992   6.932333   7.896722
    16  C    6.706516   5.865998   5.482784   6.032496   6.859840
    17  C    5.521150   4.782708   4.658252   5.305843   5.993011
    18  C    5.377641   4.533539   4.687011   5.635139   6.352527
    19  C    6.436576   5.430920   5.518354   6.589773   7.457703
    20  C    7.471035   6.400434   6.223178   7.177345   8.158753
    21  H    8.550009   7.526014   7.019919   7.657678   8.670560
    22  H    7.111899   6.367175   5.842805   6.156101   6.926280
    23  H    4.970670   4.463459   4.385706   4.825903   5.311721
    24  H    6.626857   5.616014   5.881595   7.077368   7.923637
    25  H    8.357598   7.224677   7.038978   8.048900   9.091521
    26  N    4.454235   3.818883   4.401163   5.414848   5.905164
    27  O    4.857877   4.195523   4.962777   6.127831   6.626428
    28  O    3.719412   3.420000   4.101336   4.891383   5.131742
                    6          7          8          9         10
     6  C    0.000000
     7  H    2.157850   0.000000
     8  H    3.407224   2.487053   0.000000
     9  H    3.889817   4.321495   2.506010   0.000000
    10  H    2.176109   4.321495   4.976087   4.292000   0.000000
    11  H    1.086299   2.487053   4.306000   4.976087   2.506010
    12  N    3.748030   5.333000   4.620298   2.666091   2.666091
    13  O    4.114750   5.999040   5.673028   3.884852   2.393100
    14  O    4.713382   5.999040   4.773632   2.393100   3.884852
    15  C    8.186128   8.098841   6.354603   5.646163   8.579575
    16  C    7.158187   7.247876   5.808973   5.111666   7.480166
    17  C    6.078788   5.965097   4.696383   4.483102   6.711525
    18  C    6.225681   5.656004   4.137470   4.455593   7.219085
    19  C    7.376522   6.695568   4.859452   5.060277   8.352464
    20  C    8.278268   7.854248   5.940298   5.619900   8.968246
    21  H    9.071169   9.108421   7.327714   6.386223   9.285982
    22  H    7.364792   7.729213   6.472510   5.528147   7.405180
    23  H    5.367897   5.426651   4.576300   4.449328   5.962691
    24  H    7.710633   6.758435   4.865881   5.427869   8.884160
    25  H    9.218440   8.719035   6.681062   6.344854   9.917297
    26  N    5.471061   4.505961   3.310858   4.439032   6.848662
    27  O    6.057527   4.723099   3.413289   4.945082   7.634474
    28  O    4.595310   3.749346   3.203197   4.420425   6.019474
                   11         12         13         14         15
    11  H    0.000000
    12  N    4.620298   0.000000
    13  O    4.773632   1.229080   0.000000
    14  O    5.673028   1.229080   2.182000   0.000000
    15  C    9.069016   7.015340   7.912873   6.434172   0.000000
    16  C    7.979048   6.171218   6.975722   5.787804   1.398756
    17  C    6.861759   5.761134   6.618697   5.578954   2.428442
    18  C    7.034683   6.289447   7.286313   6.057087   2.767000
    19  C    8.241090   7.125873   8.195297   6.686845   2.428442
    20  C    9.181102   7.449750   8.472737   6.852335   1.398757
    21  H    9.964399   7.562400   8.398549   6.887062   1.086000
    22  H    8.139340   6.115563   6.762327   5.778174   2.158862
    23  H    6.062267   5.368084   6.106039   5.410450   3.421629
    24  H    8.561816   7.725086   8.846811   7.288202   3.421628
    25  H   10.145033   8.268096   9.319071   7.570336   2.158863
    26  N    6.184631   6.377849   7.367644   6.360382   4.246999
    27  O    6.752203   7.162270   8.216066   7.092553   4.935103
    28  O    5.197003   5.967323   6.831459   6.179146   4.935103
                   16         17         18         19         20
    16  C    0.000000
    17  C    1.398052   0.000000
    18  C    2.395623   1.394020   0.000000
    19  C    2.806912   2.446000   1.394019   0.000000
    20  C    2.422000   2.806913   2.395624   1.398051   0.000000
    21  H    2.157850   3.410804   3.853000   3.410803   2.157850
    22  H    1.086299   2.150493   3.381874   3.893211   3.407224
    23  H    2.176110   1.083245   2.148423   3.416380   3.889818
    24  H    3.889816   3.416379   2.148422   1.083244   2.176109
    25  H    3.407224   3.893212   3.381874   2.150493   1.086298
    26  N    3.748030   2.472636   1.479999   2.472636   3.748030
    27  O    4.713382   3.567326   2.318705   2.718207   4.114750
    28  O    4.114750   2.718206   2.318706   3.567327   4.713383
                   21         22         23         24         25
    21  H    0.000000
    22  H    2.487053   0.000000
    23  H    4.321495   2.506010   0.000000
    24  H    4.321495   4.976086   4.292000   0.000000
    25  H    2.487053   4.306000   4.976087   2.506010   0.000000
    26  N    5.332999   4.620297   2.666090   2.666090   4.620297
    27  O    5.999040   5.673028   3.884851   2.393100   4.773631
    28  O    5.999040   4.773631   2.393100   3.884851   5.673028
                   26         27         28
    26  N    0.000000
    27  O    1.229080   0.000000
    28  O    1.229080   2.182000   0.000000
 Stoichiometry    C12H10N2O4
 Framework group  C1[X(C12H10N2O4)]
 Deg. of freedom    78
 Full point group                 C1      NOp   1
 Largest Abelian subgroup         C1      NOp   1
 Largest concise Abelian subgroup C1      NOp   1
                         Standard orientation:                         
 ---------------------------------------------------------------------
 Center     Atomic      Atomic             Coordinates (Angstroms)
 Number     Number       Type             X           Y           Z
 ---------------------------------------------------------------------
      1          6           0        2.226350   -2.384447   -0.082152
      2          6           0        1.503063   -1.524706   -0.915353
      3          6           0        1.819482   -0.164390   -0.978332
      4          6           0        2.870004    0.304447   -0.191003
      5          6           0        3.609282   -0.526948    0.648962
      6          6           0        3.275302   -1.883707    0.695974
      7          1           0        1.973727   -3.439792   -0.039430
      8          1           0        0.687932   -1.910807   -1.520771
      9          1           0        1.275994    0.523417   -1.614697
     10          1           0        4.416559   -0.112764    1.240717
     11          1           0        3.838741   -2.549063    1.343957
     12          7           0        3.214278    1.742670   -0.249224
     13          8           0        4.144252    2.130980    0.454339
     14          8           0        2.547627    2.454406   -0.997318
     15          6           0       -3.764419    2.268867    0.236461
     16          6           0       -2.790847    1.887371    1.165512
     17          6           0       -2.256792    0.595516    1.144365
     18          6           0       -2.721309   -0.293274    0.176084
     19          6           0       -3.690228    0.056877   -0.763001
     20          6           0       -4.210217    1.354016   -0.723140
     21          1           0       -4.173822    3.274463    0.260157
     22          1           0       -2.442752    2.595757    1.911879
     23          1           0       -1.502135    0.273751    1.851740
     24          1           0       -4.017386   -0.671402   -1.495119
     25          1           0       -4.966207    1.647521   -1.445897
     26          7           0       -2.163375   -1.663698    0.143791
     27          8           0       -2.589364   -2.428046   -0.719310
     28          8           0       -1.310641   -1.947542    0.982192
 ---------------------------------------------------------------------
 Rotational constants (GHZ):           0.5837923           0.2221210           0.1770361
 Leave Link  202 at Thu May  6 21:19:09 2021, MaxMem=   524288000 cpu:               0.1 elap:               0.1
 (Enter /opt/gaussian/g16_legacy/l301.exe)
 Standard basis: 6-31G(d) (6D, 7F)
 Ernie: Thresh=  0.10000D-02 Tol=  0.10000D-05 Strict=F.
 There are   290 symmetry adapted cartesian basis functions of A   symmetry.
 There are   290 symmetry adapted basis functions of A   symmetry.
   290 basis functions,   544 primitive gaussians,   290 cartesian basis functions
    64 alpha electrons       64 beta electrons
       nuclear repulsion energy      1185.3913121656 Hartrees.
 IExCor=    0 DFT=F Ex=HF Corr=None ExCW=0 ScaHFX=  1.000000
 ScaDFX=  1.000000  1.000000  1.000000  1.000000 ScalE2=  1.000000  1.000000
 IRadAn=      5 IRanWt=     -1 IRanGd=            0 ICorTp=0 IEmpDi=  4
 NAtoms=   28 NActive=   28 NUniq=   28 SFac= 1.00D+00 NAtFMM=   60 NAOKFM=F Big=F
 Integral buffers will be    131072 words long.
 Raffenetti 1 integral format.
 Two-electron integral symmetry is turned on.
 Leave Link  301 at Thu May  6 21:19:09 2021, MaxMem=   524288000 cpu:               0.3 elap:               0.5
 (Enter /opt/gaussian/g16_legacy/l302.exe)
 NPDir=0 NMtPBC=     1 NCelOv=     1 NCel=       1 NClECP=     1 NCelD=      1
         NCelK=      1 NCelE2=     1 NClLst=     1 CellRange=     0.0.
 One-electron integrals computed using PRISM.
 One-electron integral symmetry used in STVInt
 NBasis=   290 RedAO= T EigKep=  4.80D-04  NBF=   290
 NBsUse=   290 1.00D-06 EigRej= -1.00D+00 NBFU=   290
 Leave Link  302 at Thu May  6 21:19:10 2021, MaxMem=   524288000 cpu:               0.9 elap:               0.8
 (Enter /opt/gaussian/g16_legacy/l303.exe)
 DipDrv:  MaxL=1.
 Leave Link  303 at Thu May  6 21:19:11 2021, MaxMem=   524288000 cpu:               0.1 elap:               0.1
 (Enter /opt/gaussian/g16_legacy/l401.exe)
 ExpMin= 1.61D-01 ExpMax= 5.48D+03 ExpMxC= 8.25D+02 IAcc=3 IRadAn=         5 AccDes= 0.00D+00
 Harris functional with IExCor=  205 and IRadAn=       5 diagonalized for initial guess.
 HarFok:  IExCor=  205 AccDes= 0.00D+00 IRadAn=         5 IDoV= 1 UseB2=F ITyADJ=14
 ICtDFT=  3500011 ScaDFX=  1.000000  1.000000  1.000000  1.000000
 FoFCou: FMM=F IPFlag=           0 FMFlag=      100000 FMFlg1=           0
         NFxFlg=           0 DoJE=T BraDBF=F KetDBF=T FulRan=T
         wScrn=  0.000000 ICntrl=       500 IOpCl=  0 I1Cent=   200000004 NGrid=           0
         NMat0=    1 NMatS0=      1 NMatT0=    0 NMatD0=    1 NMtDS0=    0 NMtDT0=    0
 Petite list used in FoFCou.
 Harris En= -869.214174276669    
 JPrj=0 DoOrth=F DoCkMO=F.
 Leave Link  401 at Thu May  6 21:19:17 2021, MaxMem=   524288000 cpu:              12.1 elap:               6.5
 (Enter /opt/gaussian/g16_legacy/l502.exe)
 Integral symmetry usage will be decided dynamically.
 Closed shell SCF:
 Using DIIS extrapolation, IDIIS=  1040.
 NGot=   524288000 LenX=   524114954 LenY=   524030413
 Requested convergence on RMS density matrix=1.00D-08 within 128 cycles.
 Requested convergence on MAX density matrix=1.00D-06.
 Requested convergence on             energy=1.00D-06.
 No special actions if energy rises.
 Fock matrices will be formed incrementally for  20 cycles.
 Integral accuracy reduced to 1.0D-05 until final iterations.

 Cycle   1  Pass 0  IDiag  1:
 FoFJK:  IHMeth= 1 ICntrl=       0 DoSepK=F KAlg= 0 I1Cent=           0 FoldK=F
 IRaf= 760000000 NMat=       1 IRICut=       1 DoRegI=T DoRafI=F ISym2E= 0 IDoP0=0 IntGTp=1.
 FoFCou: FMM=F IPFlag=           0 FMFlag=      100000 FMFlg1=           0
         NFxFlg=           0 DoJE=F BraDBF=F KetDBF=F FulRan=T
         wScrn=  0.000000 ICntrl=         0 IOpCl=  0 I1Cent=           0 NGrid=           0
         NMat0=    1 NMatS0=      1 NMatT0=    0 NMatD0=    1 NMtDS0=    0 NMtDT0=    0
 Symmetry not used in FoFCou.
 E= -867.609237087527    
 DIIS: error= 6.05D-02 at cycle   1 NSaved=   1.
 NSaved= 1 IEnMin= 1 EnMin= -867.609237087527     IErMin= 1 ErrMin= 6.05D-02
 ErrMax= 6.05D-02  0.00D+00 EMaxC= 1.00D-01 BMatC= 1.28D+00 BMatP= 1.28D+00
 IDIUse=3 WtCom= 3.95D-01 WtEn= 6.05D-01
 Coeff-Com:  0.100D+01
 Coeff-En:   0.100D+01
 Coeff:      0.100D+01
 Gap=     0.554 Goal=   None    Shift=    0.000
 GapD=    0.554 DampG=2.000 DampE=0.500 DampFc=1.0000 IDamp=-1.
 RMSDP=4.47D-03 MaxDP=8.96D-02              OVMax= 1.55D-01

 Cycle   2  Pass 0  IDiag  1:
 RMSU=  4.36D-03    CP:  9.52D-01
 E= -868.120842252434     Delta-E=       -0.511605164907 Rises=F Damp=F
 DIIS: error= 2.71D-02 at cycle   2 NSaved=   2.
 NSaved= 2 IEnMin= 2 EnMin= -868.120842252434     IErMin= 2 ErrMin= 2.71D-02
 ErrMax= 2.71D-02  0.00D+00 EMaxC= 1.00D-01 BMatC= 2.91D-01 BMatP= 1.28D+00
 IDIUse=3 WtCom= 7.29D-01 WtEn= 2.71D-01
 Coeff-Com:  0.268D+00 0.732D+00
 Coeff-En:   0.000D+00 0.100D+01
 Coeff:      0.196D+00 0.804D+00
 Gap=     0.454 Goal=   None    Shift=    0.000
 RMSDP=1.83D-03 MaxDP=7.91D-02 DE=-5.12D-01 OVMax= 1.20D-01

 Cycle   3  Pass 0  IDiag  1:
 RMSU=  1.62D-03    CP:  9.54D-01  8.03D-01
 E= -868.294814368675     Delta-E=       -0.173972116241 Rises=F Damp=F
 DIIS: error= 1.33D-02 at cycle   3 NSaved=   3.
 NSaved= 3 IEnMin= 3 EnMin= -868.294814368675     IErMin= 3 ErrMin= 1.33D-02
 ErrMax= 1.33D-02  0.00D+00 EMaxC= 1.00D-01 BMatC= 6.02D-02 BMatP= 2.91D-01
 IDIUse=3 WtCom= 8.67D-01 WtEn= 1.33D-01
 Coeff-Com: -0.222D-01 0.294D+00 0.728D+00
 Coeff-En:   0.000D+00 0.418D-01 0.958D+00
 Coeff:     -0.193D-01 0.261D+00 0.759D+00
 Gap=     0.412 Goal=   None    Shift=    0.000
 RMSDP=6.51D-04 MaxDP=2.79D-02 DE=-1.74D-01 OVMax= 4.27D-02

 Cycle   4  Pass 0  IDiag  1:
 RMSU=  3.79D-04    CP:  9.53D-01  8.94D-01  7.86D-01
 E= -868.337634387612     Delta-E=       -0.042820018937 Rises=F Damp=F
 DIIS: error= 2.48D-03 at cycle   4 NSaved=   4.
 NSaved= 4 IEnMin= 4 EnMin= -868.337634387612     IErMin= 4 ErrMin= 2.48D-03
 ErrMax= 2.48D-03  0.00D+00 EMaxC= 1.00D-01 BMatC= 2.23D-03 BMatP= 6.02D-02
 IDIUse=3 WtCom= 9.75D-01 WtEn= 2.48D-02
 Coeff-Com: -0.124D-01 0.460D-01 0.238D+00 0.729D+00
 Coeff-En:   0.000D+00 0.000D+00 0.000D+00 0.100D+01
 Coeff:     -0.121D-01 0.448D-01 0.232D+00 0.736D+00
 Gap=     0.399 Goal=   None    Shift=    0.000
 RMSDP=1.63D-04 MaxDP=4.85D-03 DE=-4.28D-02 OVMax= 9.09D-03

 Cycle   5  Pass 0  IDiag  1:
 RMSU=  1.11D-04    CP:  9.53D-01  8.98D-01  8.47D-01  8.38D-01
 E= -868.339625896102     Delta-E=       -0.001991508490 Rises=F Damp=F
 DIIS: error= 5.57D-04 at cycle   5 NSaved=   5.
 NSaved= 5 IEnMin= 5 EnMin= -868.339625896102     IErMin= 5 ErrMin= 5.57D-04
 ErrMax= 5.57D-04  0.00D+00 EMaxC= 1.00D-01 BMatC= 8.15D-05 BMatP= 2.23D-03
 IDIUse=3 WtCom= 9.94D-01 WtEn= 5.57D-03
 Coeff-Com:  0.187D-02-0.224D-01-0.631D-01 0.108D-01 0.107D+01
 Coeff-En:   0.000D+00 0.000D+00 0.000D+00 0.000D+00 0.100D+01
 Coeff:      0.186D-02-0.223D-01-0.627D-01 0.107D-01 0.107D+01
 Gap=     0.401 Goal=   None    Shift=    0.000
 RMSDP=5.86D-05 MaxDP=1.08D-03 DE=-1.99D-03 OVMax= 4.51D-03

 Cycle   6  Pass 0  IDiag  1:
 RMSU=  2.92D-05    CP:  9.52D-01  9.02D-01  8.59D-01  9.36D-01  1.22D+00
 E= -868.339796566412     Delta-E=       -0.000170670310 Rises=F Damp=F
 DIIS: error= 2.28D-04 at cycle   6 NSaved=   6.
 NSaved= 6 IEnMin= 6 EnMin= -868.339796566412     IErMin= 6 ErrMin= 2.28D-04
 ErrMax= 2.28D-04  0.00D+00 EMaxC= 1.00D-01 BMatC= 1.12D-05 BMatP= 8.15D-05
 IDIUse=3 WtCom= 9.98D-01 WtEn= 2.28D-03
 Coeff-Com:  0.136D-02-0.792D-02-0.327D-01-0.648D-01 0.110D+00 0.994D+00
 Coeff-En:   0.000D+00 0.000D+00 0.000D+00 0.000D+00 0.000D+00 0.100D+01
 Coeff:      0.136D-02-0.790D-02-0.326D-01-0.647D-01 0.109D+00 0.994D+00
 Gap=     0.401 Goal=   None    Shift=    0.000
 RMSDP=2.32D-05 MaxDP=6.63D-04 DE=-1.71D-04 OVMax= 1.74D-03

 Cycle   7  Pass 0  IDiag  1:
 RMSU=  1.13D-05    CP:  9.52D-01  9.02D-01  8.62D-01  9.57D-01  1.36D+00
                    CP:  1.24D+00
 E= -868.339827784363     Delta-E=       -0.000031217951 Rises=F Damp=F
 DIIS: error= 7.83D-05 at cycle   7 NSaved=   7.
 NSaved= 7 IEnMin= 7 EnMin= -868.339827784363     IErMin= 7 ErrMin= 7.83D-05
 ErrMax= 7.83D-05  0.00D+00 EMaxC= 1.00D-01 BMatC= 2.36D-06 BMatP= 1.12D-05
 IDIUse=1 WtCom= 1.00D+00 WtEn= 0.00D+00
 Coeff-Com: -0.804D-04 0.207D-02 0.457D-02-0.610D-02-0.142D+00 0.107D+00
 Coeff-Com:  0.103D+01
 Coeff:     -0.804D-04 0.207D-02 0.457D-02-0.610D-02-0.142D+00 0.107D+00
 Coeff:      0.103D+01
 Gap=     0.401 Goal=   None    Shift=    0.000
 RMSDP=1.09D-05 MaxDP=3.05D-04 DE=-3.12D-05 OVMax= 1.28D-03

 Cycle   8  Pass 0  IDiag  1:
 RMSU=  5.74D-06    CP:  9.52D-01  9.03D-01  8.62D-01  9.64D-01  1.40D+00
                    CP:  1.48D+00  1.28D+00
 E= -868.339836233947     Delta-E=       -0.000008449583 Rises=F Damp=F
 DIIS: error= 6.89D-05 at cycle   8 NSaved=   8.
 NSaved= 8 IEnMin= 8 EnMin= -868.339836233947     IErMin= 8 ErrMin= 6.89D-05
 ErrMax= 6.89D-05  0.00D+00 EMaxC= 1.00D-01 BMatC= 6.69D-07 BMatP= 2.36D-06
 IDIUse=1 WtCom= 1.00D+00 WtEn= 0.00D+00
 Coeff-Com: -0.346D-03 0.243D-02 0.916D-02 0.161D-01-0.551D-01-0.226D+00
 Coeff-Com:  0.179D+00 0.107D+01
 Coeff:     -0.346D-03 0.243D-02 0.916D-02 0.161D-01-0.551D-01-0.226D+00
 Coeff:      0.179D+00 0.107D+01
 Gap=     0.401 Goal=   None    Shift=    0.000
 RMSDP=6.90D-06 MaxDP=1.79D-04 DE=-8.45D-06 OVMax= 7.32D-04

 Initial convergence to 1.0D-05 achieved.  Increase integral accuracy.
 Cycle   9  Pass 1  IDiag  1:
 E= -868.339836074864     Delta-E=        0.000000159082 Rises=F Damp=F
 DIIS: error= 4.54D-05 at cycle   1 NSaved=   1.
 NSaved= 1 IEnMin= 1 EnMin= -868.339836074864     IErMin= 1 ErrMin= 4.54D-05
 ErrMax= 4.54D-05  0.00D+00 EMaxC= 1.00D-01 BMatC= 3.68D-07 BMatP= 3.68D-07
 IDIUse=1 WtCom= 1.00D+00 WtEn= 0.00D+00
 Coeff-Com:  0.100D+01
 Coeff:      0.100D+01
 Gap=     0.401 Goal=   None    Shift=    0.000
 RMSDP=6.90D-06 MaxDP=1.79D-04 DE= 1.59D-07 OVMax= 2.20D-04

 Cycle  10  Pass 1  IDiag  1:
 RMSU=  2.24D-05    CP:  1.00D+00
 E= -868.339836643738     Delta-E=       -0.000000568873 Rises=F Damp=F
 DIIS: error= 1.65D-05 at cycle   2 NSaved=   2.
 NSaved= 2 IEnMin= 2 EnMin= -868.339836643738     IErMin= 2 ErrMin= 1.65D-05
 ErrMax= 1.65D-05  0.00D+00 EMaxC= 1.00D-01 BMatC= 7.88D-08 BMatP= 3.68D-07
 IDIUse=1 WtCom= 1.00D+00 WtEn= 0.00D+00
 Coeff-Com:  0.144D+00 0.856D+00
 Coeff:      0.144D+00 0.856D+00
 Gap=     0.401 Goal=   None    Shift=    0.000
 RMSDP=1.68D-06 MaxDP=4.27D-05 DE=-5.69D-07 OVMax= 1.30D-04

 Cycle  11  Pass 1  IDiag  1:
 RMSU=  1.37D-06    CP:  1.00D+00  1.04D+00
 E= -868.339836802153     Delta-E=       -0.000000158415 Rises=F Damp=F
 DIIS: error= 1.33D-05 at cycle   3 NSaved=   3.
 NSaved= 3 IEnMin= 3 EnMin= -868.339836802153     IErMin= 3 ErrMin= 1.33D-05
 ErrMax= 1.33D-05  0.00D+00 EMaxC= 1.00D-01 BMatC= 3.75D-08 BMatP= 7.88D-08
 IDIUse=1 WtCom= 1.00D+00 WtEn= 0.00D+00
 Coeff-Com: -0.114D+00 0.319D+00 0.794D+00
 Coeff:     -0.114D+00 0.319D+00 0.794D+00
 Gap=     0.401 Goal=   None    Shift=    0.000
 RMSDP=1.00D-06 MaxDP=2.45D-05 DE=-1.58D-07 OVMax= 1.02D-04

 Cycle  12  Pass 1  IDiag  1:
 RMSU=  8.58D-07    CP:  1.00D+00  1.06D+00  1.25D+00
 E= -868.339836895787     Delta-E=       -0.000000093634 Rises=F Damp=F
 DIIS: error= 8.55D-06 at cycle   4 NSaved=   4.
 NSaved= 4 IEnMin= 4 EnMin= -868.339836895787     IErMin= 4 ErrMin= 8.55D-06
 ErrMax= 8.55D-06  0.00D+00 EMaxC= 1.00D-01 BMatC= 8.52D-09 BMatP= 3.75D-08
 IDIUse=1 WtCom= 1.00D+00 WtEn= 0.00D+00
 Coeff-Com:  0.206D-01-0.563D+00-0.557D+00 0.210D+01
 Coeff:      0.206D-01-0.563D+00-0.557D+00 0.210D+01
 Gap=     0.401 Goal=   None    Shift=    0.000
 RMSDP=1.52D-06 MaxDP=3.40D-05 DE=-9.36D-08 OVMax= 1.83D-04

 Cycle  13  Pass 1  IDiag  1:
 RMSU=  2.48D-07    CP:  1.00D+00  1.06D+00  2.06D+00  2.16D+00
 E= -868.339836958150     Delta-E=       -0.000000062363 Rises=F Damp=F
 DIIS: error= 9.08D-07 at cycle   5 NSaved=   5.
 NSaved= 5 IEnMin= 5 EnMin= -868.339836958150     IErMin= 5 ErrMin= 9.08D-07
 ErrMax= 9.08D-07  0.00D+00 EMaxC= 1.00D-01 BMatC= 3.30D-10 BMatP= 8.52D-09
 IDIUse=1 WtCom= 1.00D+00 WtEn= 0.00D+00
 Coeff-Com:  0.120D-01-0.162D+00-0.189D+00 0.541D+00 0.798D+00
 Coeff:      0.120D-01-0.162D+00-0.189D+00 0.541D+00 0.798D+00
 Gap=     0.401 Goal=   None    Shift=    0.000
 RMSDP=1.38D-07 MaxDP=3.55D-06 DE=-6.24D-08 OVMax= 1.74D-05

 Cycle  14  Pass 1  IDiag  1:
 RMSU=  6.46D-08    CP:  1.00D+00  1.06D+00  2.12D+00  2.26D+00  1.11D+00
 E= -868.339836958978     Delta-E=       -0.000000000829 Rises=F Damp=F
 DIIS: error= 3.31D-07 at cycle   6 NSaved=   6.
 NSaved= 6 IEnMin= 6 EnMin= -868.339836958978     IErMin= 6 ErrMin= 3.31D-07
 ErrMax= 3.31D-07  0.00D+00 EMaxC= 1.00D-01 BMatC= 3.68D-11 BMatP= 3.30D-10
 IDIUse=1 WtCom= 1.00D+00 WtEn= 0.00D+00
 Coeff-Com: -0.330D-02 0.789D-01 0.795D-01-0.289D+00-0.438D-01 0.118D+01
 Coeff:     -0.330D-02 0.789D-01 0.795D-01-0.289D+00-0.438D-01 0.118D+01
 Gap=     0.401 Goal=   None    Shift=    0.000
 RMSDP=5.39D-08 MaxDP=1.19D-06 DE=-8.29D-10 OVMax= 3.90D-06

 Cycle  15  Pass 1  IDiag  1:
 RMSU=  3.15D-08    CP:  1.00D+00  1.06D+00  2.12D+00  2.27D+00  1.26D+00
                    CP:  1.28D+00
 E= -868.339836959037     Delta-E=       -0.000000000059 Rises=F Damp=F
 DIIS: error= 8.41D-08 at cycle   7 NSaved=   7.
 NSaved= 7 IEnMin= 7 EnMin= -868.339836959037     IErMin= 7 ErrMin= 8.41D-08
 ErrMax= 8.41D-08  0.00D+00 EMaxC= 1.00D-01 BMatC= 4.70D-12 BMatP= 3.68D-11
 IDIUse=1 WtCom= 1.00D+00 WtEn= 0.00D+00
 Coeff-Com: -0.250D-02 0.421D-01 0.457D-01-0.147D+00-0.119D+00 0.290D+00
 Coeff-Com:  0.891D+00
 Coeff:     -0.250D-02 0.421D-01 0.457D-01-0.147D+00-0.119D+00 0.290D+00
 Coeff:      0.891D+00
 Gap=     0.401 Goal=   None    Shift=    0.000
 RMSDP=1.62D-08 MaxDP=4.34D-07 DE=-5.87D-11 OVMax= 1.43D-06

 Cycle  16  Pass 1  IDiag  1:
 RMSU=  8.03D-09    CP:  1.00D+00  1.06D+00  2.12D+00  2.27D+00  1.29D+00
                    CP:  1.44D+00  1.17D+00
 E= -868.339836959073     Delta-E=       -0.000000000036 Rises=F Damp=F
 DIIS: error= 1.87D-08 at cycle   8 NSaved=   8.
 NSaved= 8 IEnMin= 8 EnMin= -868.339836959073     IErMin= 8 ErrMin= 1.87D-08
 ErrMax= 1.87D-08  0.00D+00 EMaxC= 1.00D-01 BMatC= 1.76D-13 BMatP= 4.70D-12
 IDIUse=1 WtCom= 1.00D+00 WtEn= 0.00D+00
 Coeff-Com: -0.651D-04-0.600D-04 0.138D-03 0.126D-02-0.772D-02-0.345D-01
 Coeff-Com:  0.738D-01 0.967D+00
 Coeff:     -0.651D-04-0.600D-04 0.138D-03 0.126D-02-0.772D-02-0.345D-01
 Coeff:      0.738D-01 0.967D+00
 Gap=     0.401 Goal=   None    Shift=    0.000
 RMSDP=3.35D-09 MaxDP=8.34D-08 DE=-3.59D-11 OVMax= 2.68D-07

 SCF Done:  E(RHF) =  -868.339836959     A.U. after   16 cycles
            NFock= 16  Conv=0.33D-08     -V/T= 2.0030
 KE= 8.657015812683D+02 PE=-4.403988265242D+03 EE= 1.484555534850D+03
 Leave Link  502 at Thu May  6 21:20:25 2021, MaxMem=   524288000 cpu:             133.0 elap:              67.4
 (Enter /opt/gaussian/g16_legacy/l801.exe)
 ExpMin= 1.61D-01 ExpMax= 5.48D+03 ExpMxC= 8.25D+02 IAcc=3 IRadAn=         5 AccDes= 0.00D+00
 HarFok:  IExCor=  205 AccDes= 0.00D+00 IRadAn=         5 IDoV=-2 UseB2=F ITyADJ=14
 ICtDFT= 12500011 ScaDFX=  1.000000  1.000000  1.000000  1.000000
 Largest valence mixing into a core orbital is  1.94D-04
 Largest core mixing into a valence orbital is  4.00D-05
 Range of M.O.s used for correlation:    19   290
 NBasis=   290 NAE=    64 NBE=    64 NFC=    18 NFV=     0
 NROrb=    272 NOA=    46 NOB=    46 NVA=   226 NVB=   226
 Leave Link  801 at Thu May  6 21:20:26 2021, MaxMem=   524288000 cpu:               1.7 elap:               0.9
 (Enter /opt/gaussian/g16_legacy/l906.exe)
 FulOut=F Deriv=F AODrv=F NAtomX=    28
   MMem=          85  MDisk=          46 MDiskD=          46
  W3Min=     3014840 MinDsk=     3114491 NBas6D=         290
 NBas2D=       42681    NTT=       42195    LW2=     2000000
    MDV=   523921551 MDiskM=       24996 NBas2p=       30853
 Fully direct method using O(OVN) memory.
 IMap=   1   2   3   4   5   6   7   8   9  10  11  12  13  14  15  16  17  18  19  20
 IMap=  21  22  23  24  25  26  27  28  29  30  31  32  33  34  35  36  37  38  39  40
 IMap=  41  42  43  44  45  46
 JobTyp=1 Pass  1:  I=   1 to  46 NPSUse=  2 ParTrn=T ParDer=T DoDerP=F.
 Spin components of T(2) and E(2):
     alpha-alpha T2 =       0.1270587248D+00 E2=     -0.3596896041D+00
     alpha-beta  T2 =       0.6474690303D+00 E2=     -0.1880701632D+01
     beta-beta   T2 =       0.1270587248D+00 E2=     -0.3596896041D+00
 The integrals were generated   1 times.
 ANorm=    0.1378980232D+01
 E2 =    -0.2600080840D+01 EUMP2 =    -0.87093991779929D+03
 Leave Link  906 at Thu May  6 21:23:00 2021, MaxMem=   524288000 cpu:             305.2 elap:             153.8
 (Enter /opt/gaussian/g16_legacy/l601.exe)
 Copying SCF densities to generalized density rwf, IOpCl= 0 IROHF=0.

 **********************************************************************

            Population analysis using the SCF density.

 **********************************************************************

 Orbital symmetries:
       Occupied  (A) (A) (A) (A) (A) (A) (A) (A) (A) (A) (A) (A)
                 (A) (A) (A) (A) (A) (A) (A) (A) (A) (A) (A) (A)
                 (A) (A) (A) (A) (A) (A) (A) (A) (A) (A) (A) (A)
                 (A) (A) (A) (A) (A) (A) (A) (A) (A) (A) (A) (A)
                 (A) (A) (A) (A) (A) (A) (A) (A) (A) (A) (A) (A)
                 (A) (A) (A) (A)
       Virtual   (A) (A) (A) (A) (A) (A) (A) (A) (A) (A) (A) (A)
                 (A) (A) (A) (A) (A) (A) (A) (A) (A) (A) (A) (A)
                 (A) (A) (A) (A) (A) (A) (A) (A) (A) (A) (A) (A)
                 (A) (A) (A) (A) (A) (A) (A) (A) (A) (A) (A) (A)
                 (A) (A) (A) (A) (A) (A) (A) (A) (A) (A) (A) (A)
                 (A) (A) (A) (A) (A) (A) (A) (A) (A) (A) (A) (A)
                 (A) (A) (A) (A) (A) (A) (A) (A) (A) (A) (A) (A)
                 (A) (A) (A) (A) (A) (A) (A) (A) (A) (A) (A) (A)
                 (A) (A) (A) (A) (A) (A) (A) (A) (A) (A) (A) (A)
                 (A) (A) (A) (A) (A) (A) (A) (A) (A) (A) (A) (A)
                 (A) (A) (A) (A) (A) (A) (A) (A) (A) (A) (A) (A)
                 (A) (A) (A) (A) (A) (A) (A) (A) (A) (A) (A) (A)
                 (A) (A) (A) (A) (A) (A) (A) (A) (A) (A) (A) (A)
                 (A) (A) (A) (A) (A) (A) (A) (A) (A) (A) (A) (A)
                 (A) (A) (A) (A) (A) (A) (A) (A) (A) (A) (A) (A)
                 (A) (A) (A) (A) (A) (A) (A) (A) (A) (A) (A) (A)
                 (A) (A) (A) (A) (A) (A) (A) (A) (A) (A) (A) (A)
                 (A) (A) (A) (A) (A) (A) (A) (A) (A) (A) (A) (A)
                 (A) (A) (A) (A) (A) (A) (A) (A) (A) (A)
 The electronic state is 1-A.
 Alpha  occ. eigenvalues --  -20.61516 -20.61468 -20.60431 -20.60423 -15.86487
 Alpha  occ. eigenvalues --  -15.85473 -11.31558 -11.30558 -11.28104 -11.28057
 Alpha  occ. eigenvalues --  -11.27744 -11.27103 -11.27066 -11.27033 -11.26979
 Alpha  occ. eigenvalues --  -11.26634 -11.26023 -11.25921  -1.60570  -1.59515
 Alpha  occ. eigenvalues --   -1.40122  -1.39075  -1.19697  -1.18677  -1.09147
 Alpha  occ. eigenvalues --   -1.08088  -1.05043  -1.04050  -0.96034  -0.94984
 Alpha  occ. eigenvalues --   -0.86455  -0.85436  -0.82871  -0.81847  -0.77960
 Alpha  occ. eigenvalues --   -0.76961  -0.72731  -0.71904  -0.71693  -0.70840
 Alpha  occ. eigenvalues --   -0.70785  -0.69723  -0.65343  -0.65034  -0.64316
 Alpha  occ. eigenvalues --   -0.64018  -0.62392  -0.61413  -0.55544  -0.54455
 Alpha  occ. eigenvalues --   -0.53400  -0.53123  -0.52379  -0.52124  -0.49510
 Alpha  occ. eigenvalues --   -0.49475  -0.48469  -0.48424  -0.45592  -0.44545
 Alpha  occ. eigenvalues --   -0.37661  -0.36647  -0.36510  -0.35622
 Alpha virt. eigenvalues --    0.04513   0.05570   0.11016   0.12050   0.16110
 Alpha virt. eigenvalues --    0.17167   0.21227   0.22215   0.27160   0.27881
 Alpha virt. eigenvalues --    0.28166   0.29138   0.30818   0.31797   0.32285
 Alpha virt. eigenvalues --    0.33109   0.34012   0.35018   0.36363   0.37354
 Alpha virt. eigenvalues --    0.42996   0.43912   0.44111   0.45100   0.45919
 Alpha virt. eigenvalues --    0.46757   0.48781   0.49671   0.50748   0.51780
 Alpha virt. eigenvalues --    0.56111   0.57256   0.66863   0.67904   0.68088
 Alpha virt. eigenvalues --    0.69351   0.69865   0.70864   0.71322   0.72765
 Alpha virt. eigenvalues --    0.76253   0.77748   0.78020   0.78785   0.79002
 Alpha virt. eigenvalues --    0.79258   0.79506   0.79791   0.80210   0.80500
 Alpha virt. eigenvalues --    0.81147   0.81391   0.82543   0.82653   0.85347
 Alpha virt. eigenvalues --    0.86232   0.86887   0.87352   0.88222   0.89922
 Alpha virt. eigenvalues --    0.93521   0.94153   0.95525   0.97801   1.00511
 Alpha virt. eigenvalues --    1.01299   1.02075   1.03358   1.04356   1.05278
 Alpha virt. eigenvalues --    1.06496   1.07328   1.07951   1.08394   1.08449
 Alpha virt. eigenvalues --    1.09095   1.09578   1.10513   1.14446   1.14954
 Alpha virt. eigenvalues --    1.16268   1.16862   1.17146   1.17593   1.19243
 Alpha virt. eigenvalues --    1.19893   1.22471   1.23588   1.23862   1.26132
 Alpha virt. eigenvalues --    1.26925   1.27878   1.28578   1.29322   1.30183
 Alpha virt. eigenvalues --    1.30813   1.31876   1.33312   1.34296   1.34887
 Alpha virt. eigenvalues --    1.40068   1.42193   1.46053   1.46755   1.47187
 Alpha virt. eigenvalues --    1.47792   1.52091   1.52996   1.53037   1.54095
 Alpha virt. eigenvalues --    1.60023   1.60775   1.64793   1.65826   1.66197
 Alpha virt. eigenvalues --    1.66850   1.67032   1.67639   1.67949   1.68659
 Alpha virt. eigenvalues --    1.72198   1.72930   1.73032   1.73245   1.74108
 Alpha virt. eigenvalues --    1.74315   1.75251   1.76277   1.96360   1.97298
 Alpha virt. eigenvalues --    1.98778   1.99214   1.99761   2.00356   2.04041
 Alpha virt. eigenvalues --    2.04058   2.05066   2.05511   2.09367   2.10347
 Alpha virt. eigenvalues --    2.11929   2.12697   2.13036   2.14077   2.21108
 Alpha virt. eigenvalues --    2.21317   2.22140   2.22539   2.24224   2.25163
 Alpha virt. eigenvalues --    2.26827   2.27897   2.32500   2.33700   2.35899
 Alpha virt. eigenvalues --    2.36768   2.37683   2.38267   2.42605   2.42839
 Alpha virt. eigenvalues --    2.43648   2.43843   2.44293   2.45126   2.45523
 Alpha virt. eigenvalues --    2.46087   2.47309   2.47575   2.57769   2.58272
 Alpha virt. eigenvalues --    2.58849   2.59226   2.59385   2.60350   2.69748
 Alpha virt. eigenvalues --    2.70751   2.80891   2.81968   2.82955   2.83915
 Alpha virt. eigenvalues --    2.91366   2.91597   2.91879   2.92510   2.92591
 Alpha virt. eigenvalues --    2.93147   2.99530   3.00552   3.04319   3.04485
 Alpha virt. eigenvalues --    3.05153   3.05540   3.06541   3.07592   3.10055
 Alpha virt. eigenvalues --    3.11023   3.23106   3.23811   3.24540   3.25046
 Alpha virt. eigenvalues --    3.27189   3.28153   3.42501   3.43479   3.52442
 Alpha virt. eigenvalues --    3.53452   3.76652   3.77698   4.12788   4.13428
 Alpha virt. eigenvalues --    4.28263   4.28992   4.37572   4.38180   4.47667
 Alpha virt. eigenvalues --    4.49090   4.50390   4.51810   4.52582   4.53943
 Alpha virt. eigenvalues --    4.71608   4.73094   4.76407   4.77503   5.08635
 Alpha virt. eigenvalues --    5.09825
          Condensed to atoms (all electrons):
               1          2          3          4          5          6
     1  C    4.863271   0.542825  -0.044559  -0.028813  -0.045229   0.541595
     2  C    0.542825   4.927159   0.520644  -0.039785  -0.030427  -0.042814
     3  C   -0.044559   0.520644   4.931701   0.546081  -0.053420  -0.030510
     4  C   -0.028813  -0.039785   0.546081   4.824713   0.549308  -0.040471
     5  C   -0.045229  -0.030427  -0.053420   0.549308   4.922187   0.522031
     6  C    0.541595  -0.042814  -0.030510  -0.040471   0.522031   4.935800
     7  H    0.380970  -0.026147   0.002179   0.000212   0.002181  -0.028633
     8  H   -0.025370   0.379769  -0.028827   0.001663   0.000187   0.002370
     9  H    0.001979  -0.024267   0.369207  -0.020324   0.002577  -0.000060
    10  H    0.001916  -0.000070   0.002587  -0.020037   0.369117  -0.024254
    11  H   -0.027374   0.002394   0.000207   0.001581  -0.028076   0.382690
    12  N    0.000004   0.001461  -0.044840   0.245215  -0.044726   0.001504
    13  O   -0.000003  -0.000027   0.003719  -0.087891   0.003817   0.000764
    14  O   -0.000004   0.000766   0.003815  -0.087938   0.003709  -0.000027
    15  C   -0.000000   0.000000   0.000000   0.000000  -0.000000  -0.000000
    16  C   -0.000000  -0.000001  -0.000005  -0.000001   0.000000   0.000000
    17  C    0.000003   0.000019   0.000077  -0.000010   0.000001  -0.000000
    18  C    0.000004   0.000053   0.000063   0.000001   0.000000  -0.000000
    19  C    0.000000   0.000001   0.000001   0.000000   0.000000  -0.000000
    20  C   -0.000000  -0.000000  -0.000001  -0.000000   0.000000   0.000000
    21  H    0.000000   0.000000   0.000000   0.000000  -0.000000  -0.000000
    22  H   -0.000000  -0.000000  -0.000000  -0.000000   0.000000  -0.000000
    23  H    0.000003   0.000054   0.000074   0.000009  -0.000001  -0.000001
    24  H    0.000000   0.000001   0.000000   0.000000  -0.000000  -0.000000
    25  H    0.000000   0.000000  -0.000000  -0.000000   0.000000   0.000000
    26  N    0.000059   0.000161   0.000019  -0.000000  -0.000000   0.000001
    27  O   -0.000003  -0.000454   0.000004   0.000000  -0.000000   0.000000
    28  O    0.000083   0.001483  -0.000127  -0.000017   0.000004  -0.000028
               7          8          9         10         11         12
     1  C    0.380970  -0.025370   0.001979   0.001916  -0.027374   0.000004
     2  C   -0.026147   0.379769  -0.024267  -0.000070   0.002394   0.001461
     3  C    0.002179  -0.028827   0.369207   0.002587   0.000207  -0.044840
     4  C    0.000212   0.001663  -0.020324  -0.020037   0.001581   0.245215
     5  C    0.002181   0.000187   0.002577   0.369117  -0.028076  -0.044726
     6  C   -0.028633   0.002370  -0.000060  -0.024254   0.382690   0.001504
     7  H    0.439969  -0.001244  -0.000071  -0.000070  -0.001204   0.000002
     8  H   -0.001244   0.442028  -0.001174   0.000007  -0.000092  -0.000049
     9  H   -0.000071  -0.001174   0.397787  -0.000077   0.000007  -0.005361
    10  H   -0.000070   0.000007  -0.000077   0.396252  -0.001133  -0.005367
    11  H   -0.001204  -0.000092   0.000007  -0.001133   0.449448  -0.000050
    12  N    0.000002  -0.000049  -0.005361  -0.005367  -0.000050   5.734330
    13  O    0.000000   0.000000   0.000047   0.008944  -0.000001   0.315130
    14  O    0.000000  -0.000001   0.008961   0.000046   0.000000   0.314913
    15  C   -0.000000   0.000000  -0.000000  -0.000000   0.000000   0.000000
    16  C   -0.000000   0.000000   0.000000   0.000000   0.000000   0.000000
    17  C    0.000000  -0.000027   0.000041   0.000000  -0.000000  -0.000000
    18  C    0.000000   0.000078   0.000051   0.000000  -0.000000  -0.000000
    19  C   -0.000000  -0.000006   0.000002   0.000000  -0.000000  -0.000000
    20  C    0.000000  -0.000000  -0.000001  -0.000000   0.000000   0.000000
    21  H   -0.000000   0.000000   0.000000  -0.000000  -0.000000  -0.000000
    22  H    0.000000  -0.000000   0.000000   0.000000  -0.000000   0.000000
    23  H   -0.000000   0.000000   0.000001   0.000000  -0.000000  -0.000000
    24  H   -0.000000   0.000001   0.000000  -0.000000  -0.000000  -0.000000
    25  H   -0.000000  -0.000000   0.000000   0.000000  -0.000000   0.000000
    26  N   -0.000002   0.000226  -0.000004  -0.000000   0.000000  -0.000000
    27  O   -0.000004   0.001214  -0.000002  -0.000000   0.000000  -0.000000
    28  O    0.000088  -0.000880   0.000005   0.000000  -0.000000   0.000000
              13         14         15         16         17         18
     1  C   -0.000003  -0.000004  -0.000000  -0.000000   0.000003   0.000004
     2  C   -0.000027   0.000766   0.000000  -0.000001   0.000019   0.000053
     3  C    0.003719   0.003815   0.000000  -0.000005   0.000077   0.000063
     4  C   -0.087891  -0.087938   0.000000  -0.000001  -0.000010   0.000001
     5  C    0.003817   0.003709  -0.000000   0.000000   0.000001   0.000000
     6  C    0.000764  -0.000027  -0.000000   0.000000  -0.000000  -0.000000
     7  H    0.000000   0.000000  -0.000000  -0.000000   0.000000   0.000000
     8  H    0.000000  -0.000001   0.000000   0.000000  -0.000027   0.000078
     9  H    0.000047   0.008961  -0.000000   0.000000   0.000041   0.000051
    10  H    0.008944   0.000046  -0.000000   0.000000   0.000000   0.000000
    11  H   -0.000001   0.000000   0.000000   0.000000  -0.000000  -0.000000
    12  N    0.315130   0.314913   0.000000   0.000000  -0.000000  -0.000000
    13  O    8.305930  -0.087565  -0.000000   0.000000   0.000000   0.000000
    14  O   -0.087565   8.308026  -0.000000   0.000000  -0.000000  -0.000000
    15  C   -0.000000  -0.000000   4.874296   0.542192  -0.045556  -0.028603
    16  C    0.000000   0.000000   0.542192   4.929454   0.523471  -0.039992
    17  C    0.000000  -0.000000  -0.045556   0.523471   4.918118   0.547520
    18  C    0.000000  -0.000000  -0.028603  -0.039992   0.547520   4.825628
    19  C    0.000000  -0.000000  -0.045692  -0.030146  -0.052758   0.547719
    20  C    0.000000   0.000000   0.541953  -0.043632  -0.030092  -0.040366
    21  H   -0.000000  -0.000000   0.381141  -0.027556   0.002167   0.000221
    22  H    0.000000   0.000000  -0.027246   0.382333  -0.027030   0.001559
    23  H   -0.000000  -0.000000   0.001930  -0.023619   0.368710  -0.020186
    24  H    0.000000  -0.000000   0.001928  -0.000063   0.002543  -0.020209
    25  H    0.000000   0.000000  -0.027368   0.002323   0.000203   0.001568
    26  N   -0.000000   0.000000   0.000003   0.001511  -0.044599   0.244797
    27  O   -0.000000   0.000000  -0.000003  -0.000028   0.003664  -0.087547
    28  O    0.000000  -0.000000  -0.000004   0.000752   0.003723  -0.087409
              19         20         21         22         23         24
     1  C    0.000000  -0.000000   0.000000  -0.000000   0.000003   0.000000
     2  C    0.000001  -0.000000   0.000000  -0.000000   0.000054   0.000001
     3  C    0.000001  -0.000001   0.000000  -0.000000   0.000074   0.000000
     4  C    0.000000  -0.000000   0.000000  -0.000000   0.000009   0.000000
     5  C    0.000000   0.000000  -0.000000   0.000000  -0.000001  -0.000000
     6  C   -0.000000   0.000000  -0.000000  -0.000000  -0.000001  -0.000000
     7  H   -0.000000   0.000000  -0.000000   0.000000  -0.000000  -0.000000
     8  H   -0.000006  -0.000000   0.000000  -0.000000   0.000000   0.000001
     9  H    0.000002  -0.000001   0.000000   0.000000   0.000001   0.000000
    10  H    0.000000  -0.000000  -0.000000   0.000000   0.000000  -0.000000
    11  H   -0.000000   0.000000  -0.000000  -0.000000  -0.000000  -0.000000
    12  N   -0.000000   0.000000  -0.000000   0.000000  -0.000000  -0.000000
    13  O    0.000000   0.000000  -0.000000   0.000000  -0.000000   0.000000
    14  O   -0.000000   0.000000  -0.000000   0.000000  -0.000000  -0.000000
    15  C   -0.045692   0.541953   0.381141  -0.027246   0.001930   0.001928
    16  C   -0.030146  -0.043632  -0.027556   0.382333  -0.023619  -0.000063
    17  C   -0.052758  -0.030092   0.002167  -0.027030   0.368710   0.002543
    18  C    0.547719  -0.040366   0.000221   0.001559  -0.020186  -0.020209
    19  C    4.920226   0.523837   0.002169   0.000204   0.002534   0.368962
    20  C    0.523837   4.931439  -0.027908   0.002315  -0.000061  -0.023853
    21  H    0.002169  -0.027908   0.443549  -0.001172  -0.000070  -0.000071
    22  H    0.000204   0.002315  -0.001172   0.442516  -0.001102   0.000007
    23  H    0.002534  -0.000061  -0.000070  -0.001102   0.391439  -0.000075
    24  H    0.368962  -0.023853  -0.000071   0.000007  -0.000075   0.393885
    25  H   -0.027447   0.382527  -0.001181  -0.000092   0.000007  -0.001115
    26  N   -0.044812   0.001504   0.000002  -0.000049  -0.005280  -0.005332
    27  O    0.003814   0.000758   0.000000   0.000000   0.000043   0.008842
    28  O    0.003673  -0.000027   0.000000  -0.000001   0.008622   0.000044
              25         26         27         28
     1  C    0.000000   0.000059  -0.000003   0.000083
     2  C    0.000000   0.000161  -0.000454   0.001483
     3  C   -0.000000   0.000019   0.000004  -0.000127
     4  C   -0.000000  -0.000000   0.000000  -0.000017
     5  C    0.000000  -0.000000  -0.000000   0.000004
     6  C    0.000000   0.000001   0.000000  -0.000028
     7  H   -0.000000  -0.000002  -0.000004   0.000088
     8  H   -0.000000   0.000226   0.001214  -0.000880
     9  H    0.000000  -0.000004  -0.000002   0.000005
    10  H    0.000000  -0.000000  -0.000000   0.000000
    11  H   -0.000000   0.000000   0.000000  -0.000000
    12  N    0.000000  -0.000000  -0.000000   0.000000
    13  O    0.000000  -0.000000  -0.000000   0.000000
    14  O    0.000000   0.000000   0.000000  -0.000000
    15  C   -0.027368   0.000003  -0.000003  -0.000004
    16  C    0.002323   0.001511  -0.000028   0.000752
    17  C    0.000203  -0.044599   0.003664   0.003723
    18  C    0.001568   0.244797  -0.087547  -0.087409
    19  C   -0.027447  -0.044812   0.003814   0.003673
    20  C    0.382527   0.001504   0.000758  -0.000027
    21  H   -0.001181   0.000002   0.000000   0.000000
    22  H   -0.000092  -0.000049   0.000000  -0.000001
    23  H    0.000007  -0.005280   0.000043   0.008622
    24  H   -0.001115  -0.005332   0.008842   0.000044
    25  H    0.445777  -0.000049  -0.000001   0.000000
    26  N   -0.000049   5.744674   0.310872   0.310844
    27  O   -0.000001   0.310872   8.311290  -0.087349
    28  O    0.000000   0.310844  -0.087349   8.305544
 Mulliken charges:
               1
     1  C   -0.161357
     2  C   -0.212796
     3  C   -0.178087
     4  C    0.156504
     5  C   -0.173239
     6  C   -0.219954
     7  H    0.231774
     8  H    0.230127
     9  H    0.270678
    10  H    0.272140
    11  H    0.221604
    12  N    0.487834
    13  O   -0.462864
    14  O   -0.464701
    15  C   -0.168972
    16  C   -0.216994
    17  C   -0.170187
    18  C    0.155051
    19  C   -0.172284
    20  C   -0.218392
    21  H    0.228709
    22  H    0.227758
    23  H    0.276970
    24  H    0.274505
    25  H    0.224848
    26  N    0.485455
    27  O   -0.465108
    28  O   -0.459022
 Sum of Mulliken charges =  -0.00000
 Mulliken charges with hydrogens summed into heavy atoms:
               1
     1  C    0.070417
     2  C    0.017331
     3  C    0.092591
     4  C    0.156504
     5  C    0.098901
     6  C    0.001650
    12  N    0.487834
    13  O   -0.462864
    14  O   -0.464701
    15  C    0.059737
    16  C    0.010764
    17  C    0.106783
    18  C    0.155051
    19  C    0.102221
    20  C    0.006456
    26  N    0.485455
    27  O   -0.465108
    28  O   -0.459022
 Electronic spatial extent (au):  <R**2>=           5883.3859
 Charge=             -0.0000 electrons
 Dipole moment (field-independent basis, Debye):
    X=             -3.4424    Y=             -0.3596    Z=              0.4218  Tot=              3.4867
 Quadrupole moment (field-independent basis, Debye-Ang):
   XX=            -98.0020   YY=           -111.0275   ZZ=           -100.4163
   XY=            -28.7952   XZ=              5.5476   YZ=              2.4247
 Traceless Quadrupole moment (field-independent basis, Debye-Ang):
   XX=              5.1466   YY=             -7.8789   ZZ=              2.7323
   XY=            -28.7952   XZ=              5.5476   YZ=              2.4247
 Octapole moment (field-independent basis, Debye-Ang**2):
  XXX=            -67.2457  YYY=             -6.8918  ZZZ=              0.4744  XYY=            -25.2466
  XXY=            -16.4373  XXZ=             -5.5710  XZZ=             -1.7026  YZZ=              3.8938
  YYZ=             14.7393  XYZ=             -5.2447
 Hexadecapole moment (field-independent basis, Debye-Ang**3):
 XXXX=          -5380.7761 YYYY=          -1837.9805 ZZZZ=           -462.2755 XXXY=           -254.7743
 XXXZ=            180.1364 YYYX=           -176.6012 YYYZ=             12.1496 ZZZX=             25.7197
 ZZZY=              2.6624 XXYY=          -1254.9282 XXZZ=           -954.0313 YYZZ=           -388.1094
 XXYZ=            -72.5983 YYXZ=              3.7690 ZZXY=             12.8279
 N-N= 1.185391312166D+03 E-N=-4.403988264568D+03  KE= 8.657015812683D+02
 Leave Link  601 at Thu May  6 21:23:00 2021, MaxMem=   524288000 cpu:               0.3 elap:               0.3
 (Enter /opt/gaussian/g16_legacy/l9999.exe)
 1\1\GINC-TRUENO90\SP\RMP2-FC\6-31G(d)\C12H10N2O4\JRAMOS\06-May-2021\0\
 \#p 6-31g* mp2\\Input file generated by CHIRIPA (05-May-2021 14:57:26)
 \\0,1\C,0,1.914143,0.,0.\C,0,1.214143,1.211,0.\C,0,-0.183857,1.223,0.\
 C,0,-0.852857,0.,0.\C,0,-0.183857,-1.223,0.\C,0,1.214143,-1.211,0.\H,0
 ,3.000143,0.,0.\H,0,1.755143,2.153,0.\H,0,-0.750857,2.146,0.\H,0,-0.75
 0857,-2.146,0.\H,0,1.755143,-2.153,0.\N,0,-2.332857,0.,0.\O,0,-2.89885
 7,-1.091,0.\O,0,-2.898857,1.091,0.\C,0,-1.201725,4.861364,-4.929774\C,
 0,-1.02092,3.474343,-4.928661\C,0,0.109406,2.906146,-4.333628\C,0,1.04
 3071,3.758489,-3.7462\C,0,0.89125,5.144134,-3.731097\C,0,-0.246747,5.6
 90372,-4.332041\H,0,-2.082769,5.294224,-5.394306\H,0,-1.760922,2.82808
 5,-5.392118\H,0,0.274369,1.835643,-4.318462\H,0,1.646273,5.762644,-3.2
 61199\H,0,-0.384543,6.767895,-4.331406\N,0,2.243756,3.168588,-3.113136
 \O,0,3.051667,3.94121,-2.602282\O,0,2.354208,1.944771,-3.139782\\Versi
 on=EM64L-G16RevA.03\State=1-A\HF=-868.339837\MP2=-870.9399178\RMSD=3.3
 49e-09\PG=C01 [X(C12H10N2O4)]\\@


       THE DEATH-KNELL OF THE ATOM

 SO THE ATOMS IN TURN, WE NOW CLEARLY DISCERN,
 FLY TO BITS WITH THE UTMOST FACILITY;
 THEY WEND ON THEIR WAY, AND, IN SPLITTING, DISPLAY
 AN ABSOLUTE LACK OF STABILITY.

          SIR WM. RAMSAY, 1905
 Job cpu time:       0 days  0 hours  7 minutes 34.5 seconds.
 Elapsed time:       0 days  0 hours  3 minutes 51.3 seconds.
 File lengths (MBytes):  RWF=     50 Int=      0 D2E=      0 Chk=      7 Scr=      1
 Normal termination of Gaussian 16 at Thu May  6 21:23:01 2021.
