 Entering Gaussian System, Link 0=/opt/gaussian/g16_legacy/g16
 Input=gaussian_01124_2_1.com
 Output=gaussian_01124_2_1.log
 Initial command:
 /opt/gaussian/g16_legacy/l1.exe "/scratch-local/jramos/2590691/Gau-23741.inp" -scrdir="/scratch-local/jramos/2590691/"
 Entering Link 1 = /opt/gaussian/g16_legacy/l1.exe PID=     23743.
  
 Copyright (c) 1988,1990,1992,1993,1995,1998,2003,2009,2016,
            Gaussian, Inc.  All Rights Reserved.
  
 This is part of the Gaussian(R) 16 program.  It is based on
 the Gaussian(R) 09 system (copyright 2009, Gaussian, Inc.),
 the Gaussian(R) 03 system (copyright 2003, Gaussian, Inc.),
 the Gaussian(R) 98 system (copyright 1998, Gaussian, Inc.),
 the Gaussian(R) 94 system (copyright 1995, Gaussian, Inc.),
 the Gaussian 92(TM) system (copyright 1992, Gaussian, Inc.),
 the Gaussian 90(TM) system (copyright 1990, Gaussian, Inc.),
 the Gaussian 88(TM) system (copyright 1988, Gaussian, Inc.),
 the Gaussian 86(TM) system (copyright 1986, Carnegie Mellon
 University), and the Gaussian 82(TM) system (copyright 1983,
 Carnegie Mellon University). Gaussian is a federally registered
 trademark of Gaussian, Inc.
  
 This software contains proprietary and confidential information,
 including trade secrets, belonging to Gaussian, Inc.
  
 This software is provided under written license and may be
 used, copied, transmitted, or stored only in accord with that
 written license.
  
 The following legend is applicable only to US Government
 contracts under FAR:
  
                    RESTRICTED RIGHTS LEGEND
  
 Use, reproduction and disclosure by the US Government is
 subject to restrictions as set forth in subparagraphs (a)
 and (c) of the Commercial Computer Software - Restricted
 Rights clause in FAR 52.227-19.
  
 Gaussian, Inc.
 340 Quinnipiac St., Bldg. 40, Wallingford CT 06492
  
  
 ---------------------------------------------------------------
 Warning -- This program may not be used in any manner that
 competes with the business of Gaussian, Inc. or will provide
 assistance to any competitor of Gaussian, Inc.  The licensee
 of this program is prohibited from giving any competitor of
 Gaussian, Inc. access to this program.  By using this program,
 the user acknowledges that Gaussian, Inc. is engaged in the
 business of creating and licensing software in the field of
 computational chemistry and represents and warrants to the
 licensee that it is not a competitor of Gaussian, Inc. and that
 it will not use this program in any manner prohibited above.
 ---------------------------------------------------------------
  

 Cite this work as:
 Gaussian 16, Revision A.03,
 M. J. Frisch, G. W. Trucks, H. B. Schlegel, G. E. Scuseria, 
 M. A. Robb, J. R. Cheeseman, G. Scalmani, V. Barone, 
 G. A. Petersson, H. Nakatsuji, X. Li, M. Caricato, A. V. Marenich, 
 J. Bloino, B. G. Janesko, R. Gomperts, B. Mennucci, H. P. Hratchian, 
 J. V. Ortiz, A. F. Izmaylov, J. L. Sonnenberg, D. Williams-Young, 
 F. Ding, F. Lipparini, F. Egidi, J. Goings, B. Peng, A. Petrone, 
 T. Henderson, D. Ranasinghe, V. G. Zakrzewski, J. Gao, N. Rega, 
 G. Zheng, W. Liang, M. Hada, M. Ehara, K. Toyota, R. Fukuda, 
 J. Hasegawa, M. Ishida, T. Nakajima, Y. Honda, O. Kitao, H. Nakai, 
 T. Vreven, K. Throssell, J. A. Montgomery, Jr., J. E. Peralta, 
 F. Ogliaro, M. J. Bearpark, J. J. Heyd, E. N. Brothers, K. N. Kudin, 
 V. N. Staroverov, T. A. Keith, R. Kobayashi, J. Normand, 
 K. Raghavachari, A. P. Rendell, J. C. Burant, S. S. Iyengar, 
 J. Tomasi, M. Cossi, J. M. Millam, M. Klene, C. Adamo, R. Cammi, 
 J. W. Ochterski, R. L. Martin, K. Morokuma, O. Farkas, 
 J. B. Foresman, and D. J. Fox, Gaussian, Inc., Wallingford CT, 2016.
 
 ******************************************
 Gaussian 16:  EM64L-G16RevA.03 25-Dec-2016
                 6-May-2021 
 ******************************************
 %chk=gaussian_01124_2_1.chk
 %nproc=2
 Will use up to    2 processors via shared memory.
 %mem=4000Mb
 -------------
 #p 6-31g* mp2
 -------------
 1/38=1,172=1/1;
 2/12=2,17=6,18=5,40=1/2;
 3/5=1,6=6,7=1,11=9,25=1,30=1/1,2,3;
 4//1;
 5/5=2,38=5/2;
 8/10=2/1;
 9/16=-3/6;
 6/7=2,8=2,9=2,10=2/1;
 99/5=1,9=1/99;
 Leave Link    1 at Thu May  6 01:19:52 2021, MaxMem=   524288000 cpu:               0.1 elap:               0.1
 (Enter /opt/gaussian/g16_legacy/l101.exe)
 ------------------------------------------------------
 Input file generated by CHIRIPA (05-May-2021 14:55:20)
 ------------------------------------------------------
 Symbolic Z-matrix:
 Charge =  0 Multiplicity = 1
 C                     1.91414   0.        0. 
 C                     1.21414   1.211     0. 
 C                    -0.18386   1.223     0. 
 C                    -0.85286   0.        0. 
 C                    -0.18386  -1.223     0. 
 C                     1.21414  -1.211     0. 
 H                     3.00014   0.        0. 
 H                     1.75514   2.153     0. 
 H                    -0.75086   2.146     0. 
 H                    -0.75086  -2.146     0. 
 H                     1.75514  -2.153     0. 
 N                    -2.33286   0.        0. 
 O                    -2.89886  -1.091     0. 
 O                    -2.89886   1.091     0. 
 C                    -7.05698   3.33144  -1.32936 
 C                    -6.29413   2.03533  -1.0534 
 C                    -7.19746   0.91723  -0.53222 
 H                    -7.55452   3.66014  -0.40667 
 H                    -7.85325   3.13164  -2.05972 
 H                    -5.49865   2.23781  -0.32482 
 H                    -5.79819   1.70978  -1.9768 
 H                    -7.98318   0.6865   -1.25887 
 H                    -7.68193   1.21754   0.4025 
 H                    -6.63166  -0.00005  -0.34162 
 C                    -6.16749   4.45861  -1.85092 
 C                    -6.93034   5.75471  -2.12688 
 C                    -6.02701   6.87282  -2.64806 
 H                    -5.37122   4.6584   -1.12056 
 H                    -5.66995   4.1299   -2.77361 
 H                    -7.42628   6.08027  -1.20348 
 H                    -7.72582   5.55224  -2.85546 
 H                    -5.54254   6.57251  -3.58278 
 H                    -5.2413    7.10354  -1.92141 
 H                    -6.59282   7.79009  -2.83866 
 
 ITRead=  0  0  0  0  0  0  0  0  0  0  0  0  0  0  0  0  0  0  0  0
 ITRead=  0  0  0  0  0  0  0  0  0  0  0  0  0  0
 MicOpt= -1 -1 -1 -1 -1 -1 -1 -1 -1 -1 -1 -1 -1 -1 -1 -1 -1 -1 -1 -1
 MicOpt= -1 -1 -1 -1 -1 -1 -1 -1 -1 -1 -1 -1 -1 -1
 NAtoms=     34 NQM=       34 NQMF=       0 NMMI=      0 NMMIF=      0
                NMic=       0 NMicF=      0.
                    Isotopes and Nuclear Properties:
 (Nuclear quadrupole moments (NQMom) in fm**2, nuclear magnetic moments (NMagM)
  in nuclear magnetons)

  Atom         1           2           3           4           5           6           7           8           9          10
 IAtWgt=          12          12          12          12          12          12           1           1           1           1
 AtmWgt=  12.0000000  12.0000000  12.0000000  12.0000000  12.0000000  12.0000000   1.0078250   1.0078250   1.0078250   1.0078250
 NucSpn=           0           0           0           0           0           0           1           1           1           1
 AtZEff=  -0.0000000  -0.0000000  -0.0000000  -0.0000000  -0.0000000  -0.0000000  -0.0000000  -0.0000000  -0.0000000  -0.0000000
 NQMom=    0.0000000   0.0000000   0.0000000   0.0000000   0.0000000   0.0000000   0.0000000   0.0000000   0.0000000   0.0000000
 NMagM=    0.0000000   0.0000000   0.0000000   0.0000000   0.0000000   0.0000000   2.7928460   2.7928460   2.7928460   2.7928460
 AtZNuc=   6.0000000   6.0000000   6.0000000   6.0000000   6.0000000   6.0000000   1.0000000   1.0000000   1.0000000   1.0000000

  Atom        11          12          13          14          15          16          17          18          19          20
 IAtWgt=           1          14          16          16          12          12          12           1           1           1
 AtmWgt=   1.0078250  14.0030740  15.9949146  15.9949146  12.0000000  12.0000000  12.0000000   1.0078250   1.0078250   1.0078250
 NucSpn=           1           2           0           0           0           0           0           1           1           1
 AtZEff=  -0.0000000  -0.0000000  -0.0000000  -0.0000000  -0.0000000  -0.0000000  -0.0000000  -0.0000000  -0.0000000  -0.0000000
 NQMom=    0.0000000   2.0440000   0.0000000   0.0000000   0.0000000   0.0000000   0.0000000   0.0000000   0.0000000   0.0000000
 NMagM=    2.7928460   0.4037610   0.0000000   0.0000000   0.0000000   0.0000000   0.0000000   2.7928460   2.7928460   2.7928460
 AtZNuc=   1.0000000   7.0000000   8.0000000   8.0000000   6.0000000   6.0000000   6.0000000   1.0000000   1.0000000   1.0000000

  Atom        21          22          23          24          25          26          27          28          29          30
 IAtWgt=           1           1           1           1          12          12          12           1           1           1
 AtmWgt=   1.0078250   1.0078250   1.0078250   1.0078250  12.0000000  12.0000000  12.0000000   1.0078250   1.0078250   1.0078250
 NucSpn=           1           1           1           1           0           0           0           1           1           1
 AtZEff=  -0.0000000  -0.0000000  -0.0000000  -0.0000000  -0.0000000  -0.0000000  -0.0000000  -0.0000000  -0.0000000  -0.0000000
 NQMom=    0.0000000   0.0000000   0.0000000   0.0000000   0.0000000   0.0000000   0.0000000   0.0000000   0.0000000   0.0000000
 NMagM=    2.7928460   2.7928460   2.7928460   2.7928460   0.0000000   0.0000000   0.0000000   2.7928460   2.7928460   2.7928460
 AtZNuc=   1.0000000   1.0000000   1.0000000   1.0000000   6.0000000   6.0000000   6.0000000   1.0000000   1.0000000   1.0000000

  Atom        31          32          33          34
 IAtWgt=           1           1           1           1
 AtmWgt=   1.0078250   1.0078250   1.0078250   1.0078250
 NucSpn=           1           1           1           1
 AtZEff=  -0.0000000  -0.0000000  -0.0000000  -0.0000000
 NQMom=    0.0000000   0.0000000   0.0000000   0.0000000
 NMagM=    2.7928460   2.7928460   2.7928460   2.7928460
 AtZNuc=   1.0000000   1.0000000   1.0000000   1.0000000
 Leave Link  101 at Thu May  6 01:19:52 2021, MaxMem=   524288000 cpu:               0.2 elap:               0.1
 (Enter /opt/gaussian/g16_legacy/l202.exe)
                          Input orientation:                          
 ---------------------------------------------------------------------
 Center     Atomic      Atomic             Coordinates (Angstroms)
 Number     Number       Type             X           Y           Z
 ---------------------------------------------------------------------
      1          6           0        1.914143    0.000000    0.000000
      2          6           0        1.214143    1.211000    0.000000
      3          6           0       -0.183857    1.223000    0.000000
      4          6           0       -0.852857    0.000000    0.000000
      5          6           0       -0.183857   -1.223000    0.000000
      6          6           0        1.214143   -1.211000    0.000000
      7          1           0        3.000143    0.000000    0.000000
      8          1           0        1.755143    2.153000    0.000000
      9          1           0       -0.750857    2.146000    0.000000
     10          1           0       -0.750857   -2.146000    0.000000
     11          1           0        1.755143   -2.153000    0.000000
     12          7           0       -2.332857    0.000000    0.000000
     13          8           0       -2.898857   -1.091000    0.000000
     14          8           0       -2.898857    1.091000    0.000000
     15          6           0       -7.056980    3.331437   -1.329356
     16          6           0       -6.294130    2.035331   -1.053397
     17          6           0       -7.197463    0.917227   -0.532218
     18          1           0       -7.554519    3.660142   -0.406668
     19          1           0       -7.853252    3.131644   -2.059717
     20          1           0       -5.498651    2.237808   -0.324815
     21          1           0       -5.798192    1.709776   -1.976801
     22          1           0       -7.983176    0.686503   -1.258869
     23          1           0       -7.681934    1.217535    0.402504
     24          1           0       -6.631656   -0.000048   -0.341618
     25          6           0       -6.167492    4.458606   -1.850922
     26          6           0       -6.930342    5.754712   -2.126881
     27          6           0       -6.027009    6.872816   -2.648060
     28          1           0       -5.371219    4.658399   -1.120560
     29          1           0       -5.669952    4.129901   -2.773609
     30          1           0       -7.426280    6.080267   -1.203477
     31          1           0       -7.725821    5.552235   -2.855463
     32          1           0       -5.542538    6.572509   -3.582781
     33          1           0       -5.241295    7.103541   -1.921409
     34          1           0       -6.592816    7.790092   -2.838660
 ---------------------------------------------------------------------
                    Distance matrix (angstroms):
                    1          2          3          4          5
     1  C    0.000000
     2  C    1.398757   0.000000
     3  C    2.428443   1.398052   0.000000
     4  C    2.767000   2.395623   1.394019   0.000000
     5  C    2.428443   2.806913   2.446000   1.394019   0.000000
     6  C    1.398757   2.422000   2.806913   2.395623   1.398052
     7  H    1.086000   2.157850   3.410804   3.853000   3.410804
     8  H    2.158863   1.086299   2.150493   3.381874   3.893212
     9  H    3.421628   2.176109   1.083244   2.148423   3.416380
    10  H    3.421628   3.889817   3.416380   2.148423   1.083244
    11  H    2.158863   3.407224   3.893212   3.381874   2.150493
    12  N    4.247000   3.748030   2.472636   1.480000   2.472636
    13  O    4.935104   4.713382   3.567327   2.318706   2.718207
    14  O    4.935104   4.114750   2.718207   2.318706   3.567327
    15  C    9.661610   8.641465   7.311123   7.166366   8.351641
    16  C    8.522204   7.626489   6.253396   5.904208   7.004413
    17  C    9.173109   8.433545   7.040413   6.432619   7.352176
    18  H   10.159605   9.113348   7.773783   7.646848   8.850826
    19  H   10.461913   9.494681   8.167311   7.940728   9.056764
    20  H    7.750020   6.798635   5.420551   5.166884   6.350569
    21  H    8.143168   7.302696   5.972056   5.593515   6.635486
    22  H   10.000648   9.297877   7.918457   7.273066   8.127751
    23  H    9.681379   8.905180   7.508875   6.948431   7.895529
    24  H    8.552624   7.946062   6.571656   5.788888   6.571638
    25  C    9.413708   8.274140   7.049748   7.179862   8.456385
    26  C   10.764072   9.565646   8.400899   8.635749   9.936154
    27  C   10.830961   9.565703   8.548396   9.001093  10.329418
    28  H    8.719681   7.517128   6.321894   6.585737   7.921820
    29  H    9.070143   7.975190   6.800016   6.924839   8.151300
    30  H   11.209884   9.990747   8.803073   9.034816  10.355615
    31  H   11.485203  10.340355   9.152987   9.285398  10.532744
    32  H   10.565807   9.339959   8.376696   8.833306  10.115421
    33  H   10.264132   8.949108   7.990635   8.567992   9.929792
    34  H   11.879052  10.596747   9.605178  10.084178  11.417906
                    6          7          8          9         10
     6  C    0.000000
     7  H    2.157850   0.000000
     8  H    3.407224   2.487053   0.000000
     9  H    3.889817   4.321495   2.506010   0.000000
    10  H    2.176109   4.321495   4.976087   4.292000   0.000000
    11  H    1.086299   2.487053   4.306000   4.976087   2.506010
    12  N    3.748030   5.333000   4.620298   2.666091   2.666091
    13  O    4.114750   5.999040   5.673028   3.884852   2.393100
    14  O    4.713382   5.999040   4.773632   2.393100   3.884852
    15  C    9.529554  10.677611   8.989406   6.552834   8.457937
    16  C    8.247574   9.572655   8.118761   5.643560   7.022895
    17  C    8.692970  10.252596   9.053151   6.584214   7.157188
    18  H   10.039066  11.178681   9.439633   6.981964   8.953574
    19  H   10.262487  11.482413   9.875294   7.460425   9.085151
    20  H    7.553899   8.794475   7.261558   4.759777   6.470303
    21  H    7.849300   9.178332   7.820298   5.438164   6.652093
    22  H    9.475017  11.076522   9.928254   7.484739   7.868562
    23  H    9.230383  10.758772   9.491866   7.004562   7.714610
    24  H    7.946047   9.637855   8.665490   6.269451   6.269419
    25  C    9.489936  10.361014   8.456351   6.173653   8.739947
    26  C   10.925997  11.672826   9.640208   7.465418  10.253336
    27  C   11.171150  11.650635   9.478965   7.562592  10.779102
    28  H    8.892271   9.645519   7.636604   5.377318   8.300798
    29  H    9.143790   9.995976   8.169032   5.985505   8.442591
    30  H   11.369602  12.129646  10.058345   7.841434  10.662134
    31  H   11.567972  12.410773  10.468866   8.270806  10.773422
    32  H   10.912015  11.358327   9.253352   7.442480  10.573974
    33  H   10.700284  11.048684   8.783497   6.959386  10.459917
    34  H   12.248521  12.679447  10.465334   8.604781  11.870653
                   11         12         13         14         15
    11  H    0.000000
    12  N    4.620298   0.000000
    13  O    4.773632   1.229080   0.000000
    14  O    5.673028   1.229080   2.182000   0.000000
    15  C   10.464213   5.931526   6.214107   4.906805   0.000000
    16  C    9.134690   4.576451   4.734075   3.678218   1.529047
    17  C    9.479383   4.978851   4.774332   4.334913   2.546286
    18  H   10.983069   6.389661   6.664377   5.333016   1.098611
    19  H   11.157560   6.672660   6.827824   5.740444   1.098815
    20  H    8.485413   3.890442   4.236201   2.860000   2.152560
    21  H    8.711007   4.340463   4.489792   3.563253   2.152560
    22  H   10.221663   5.829420   5.531236   5.253444   2.803299
    23  H   10.029005   5.500639   5.326272   4.801650   2.803300
    24  H    8.665466   4.312352   3.903930   3.903957   3.500760
    25  C   10.483673   6.165185   6.701344   5.044864   1.527655
    26  C   11.937051   7.666629   8.224370   6.521250   2.554280
    27  C   12.208172   8.239817   8.956557   7.087098   3.916783
    28  H    9.921484   5.673445   6.357973   4.482696   2.155508
    29  H   10.114336   5.990425   6.529141   4.960524   2.155750
    30  H   12.390866   8.022528   8.565803   6.843881   2.776382
    31  H   12.546434   8.250154   8.694011   7.166301   2.776382
    32  H   11.925895   8.144707   8.863111   7.062033   4.228003
    33  H   11.761187   7.912719   8.736666   6.732717   4.228003
    34  H   13.289526   9.321522  10.028814   8.159728   4.730016
                   16         17         18         19         20
    16  C    0.000000
    17  C    1.528985   0.000000
    18  H    2.155655   2.768905   0.000000
    19  H    2.155329   2.768927   1.761000   0.000000
    20  H    1.097550   2.161692   2.501265   3.058263   0.000000
    21  H    1.097550   2.161692   3.058419   2.500371   1.760000
    22  H    2.171274   1.094806   3.122903   2.576228   3.074389
    23  H    2.171276   1.094807   2.576300   3.123411   2.517275
    24  H    2.182503   1.094468   3.775301   3.775137   2.508382
    25  C    2.554280   3.916783   2.155750   2.155507   2.776382
    26  C    3.923127   5.100546   2.781358   2.781503   4.203070
    27  C    5.100546   6.427736   4.204569   4.204483   5.211519
    28  H    2.781503   4.204483   2.504587   3.061615   2.551217
    29  H    2.781358   4.204569   3.061809   2.504587   3.099347
    30  H    4.203070   5.211519   2.551148   3.099973   4.387743
    31  H    4.203070   5.211519   3.099348   2.551218   4.727567
    32  H    5.248682   6.635279   4.755801   4.415730   5.422721
    33  H    5.248682   6.635279   4.416157   4.755777   5.127446
    34  H    6.032715   7.274720   4.888348   4.888414   6.192291
                   21         22         23         24         25
    21  H    0.000000
    22  H    2.517274   0.000000
    23  H    3.074391   1.770001   0.000000
    24  H    2.508383   1.771809   1.771810   0.000000
    25  C    2.776382   4.228001   4.228002   4.730015   0.000000
    26  C    4.203070   5.248680   5.248681   6.032714   1.529047
    27  C    5.211519   6.635278   6.635278   7.274719   2.546286
    28  H    3.099973   4.755776   4.415730   4.888413   1.098816
    29  H    2.551147   4.416156   4.755801   4.888347   1.098610
    30  H    4.727567   5.422720   5.127445   6.192290   2.152560
    31  H    4.387743   5.127445   5.422721   6.192290   2.152560
    32  H    5.127446   6.782503   7.009655   7.408767   2.803300
    33  H    5.422721   7.009654   6.782504   7.408766   2.803300
    34  H    6.192291   7.408766   7.408767   8.180648   3.500761
                   26         27         28         29         30
    26  C    0.000000
    27  C    1.528985   0.000000
    28  H    2.155330   2.768927   0.000000
    29  H    2.155656   2.768905   1.761000   0.000000
    30  H    1.097550   2.161692   2.500372   3.058420   0.000000
    31  H    1.097550   2.161692   3.058265   2.501266   1.760000
    32  H    2.171275   1.094806   3.123412   2.576301   3.074390
    33  H    2.171276   1.094807   2.576230   3.122904   2.517275
    34  H    2.182504   1.094468   3.775138   3.775302   2.508383
                   31         32         33         34
    31  H    0.000000
    32  H    2.517275   0.000000
    33  H    3.074390   1.770000   0.000000
    34  H    2.508383   1.771809   1.771810   0.000000
 Stoichiometry    C12H19NO2
 Framework group  C1[X(C12H19NO2)]
 Deg. of freedom    96
 Full point group                 C1      NOp   1
 Largest Abelian subgroup         C1      NOp   1
 Largest concise Abelian subgroup C1      NOp   1
                         Standard orientation:                         
 ---------------------------------------------------------------------
 Center     Atomic      Atomic             Coordinates (Angstroms)
 Number     Number       Type             X           Y           Z
 ---------------------------------------------------------------------
      1          6           0        5.246449   -1.567136    0.095467
      2          6           0        4.012072   -2.099876   -0.290566
      3          6           0        2.879321   -1.284046   -0.367023
      4          6           0        3.017596    0.066152   -0.049007
      5          6           0        4.233647    0.626564    0.338871
      6          6           0        5.353109   -0.208013    0.408402
      7          1           0        6.121236   -2.208174    0.152171
      8          1           0        3.926278   -3.155025   -0.534172
      9          1           0        1.911540   -1.670331   -0.662997
     10          1           0        4.287977    1.682219    0.575636
     11          1           0        6.310468    0.208461    0.708502
     12          7           0        1.825438    0.939758   -0.126282
     13          8           0        1.973593    2.126050    0.159018
     14          8           0        0.765442    0.421655   -0.470688
     15          6           0       -4.105156    0.855450   -0.063465
     16          6           0       -2.714766    1.473741    0.086586
     17          6           0       -2.713291    2.986412   -0.136167
     18          1           0       -4.493122    1.080194   -1.066420
     19          1           0       -4.790143    1.332862    0.650863
     20          1           0       -2.032280    0.994338   -0.626857
     21          1           0       -2.329986    1.247336    1.089232
     22          1           0       -3.371863    3.482508    0.584092
     23          1           0       -3.072466    3.228074   -1.141749
     24          1           0       -1.709399    3.407727   -0.024125
     25          6           0       -4.122884   -0.656209    0.156318
     26          6           0       -5.513274   -1.274500    0.006267
     27          6           0       -5.514749   -2.787171    0.229019
     28          1           0       -3.437897   -1.133621   -0.558011
     29          1           0       -3.734918   -0.880953    1.159272
     30          1           0       -5.898055   -1.048094   -0.996380
     31          1           0       -6.195760   -0.795097    0.719710
     32          1           0       -5.155575   -3.028833    1.234600
     33          1           0       -4.856177   -3.283268   -0.491240
     34          1           0       -6.518642   -3.208486    0.116978
 ---------------------------------------------------------------------
 Rotational constants (GHZ):           0.8826924           0.1617104           0.1383935
 Leave Link  202 at Thu May  6 01:19:52 2021, MaxMem=   524288000 cpu:               0.1 elap:               0.1
 (Enter /opt/gaussian/g16_legacy/l301.exe)
 Standard basis: 6-31G(d) (6D, 7F)
 Ernie: Thresh=  0.10000D-02 Tol=  0.10000D-05 Strict=F.
 There are   263 symmetry adapted cartesian basis functions of A   symmetry.
 There are   263 symmetry adapted basis functions of A   symmetry.
   263 basis functions,   496 primitive gaussians,   263 cartesian basis functions
    57 alpha electrons       57 beta electrons
       nuclear repulsion energy       891.3750228614 Hartrees.
 IExCor=    0 DFT=F Ex=HF Corr=None ExCW=0 ScaHFX=  1.000000
 ScaDFX=  1.000000  1.000000  1.000000  1.000000 ScalE2=  1.000000  1.000000
 IRadAn=      5 IRanWt=     -1 IRanGd=            0 ICorTp=0 IEmpDi=  4
 NAtoms=   34 NActive=   34 NUniq=   34 SFac= 1.00D+00 NAtFMM=   60 NAOKFM=F Big=F
 Integral buffers will be    131072 words long.
 Raffenetti 1 integral format.
 Two-electron integral symmetry is turned on.
 Leave Link  301 at Thu May  6 01:19:52 2021, MaxMem=   524288000 cpu:               0.1 elap:               0.1
 (Enter /opt/gaussian/g16_legacy/l302.exe)
 NPDir=0 NMtPBC=     1 NCelOv=     1 NCel=       1 NClECP=     1 NCelD=      1
         NCelK=      1 NCelE2=     1 NClLst=     1 CellRange=     0.0.
 One-electron integrals computed using PRISM.
 One-electron integral symmetry used in STVInt
 NBasis=   263 RedAO= T EigKep=  4.82D-04  NBF=   263
 NBsUse=   263 1.00D-06 EigRej= -1.00D+00 NBFU=   263
 Leave Link  302 at Thu May  6 01:19:53 2021, MaxMem=   524288000 cpu:               0.5 elap:               0.5
 (Enter /opt/gaussian/g16_legacy/l303.exe)
 DipDrv:  MaxL=1.
 Leave Link  303 at Thu May  6 01:19:53 2021, MaxMem=   524288000 cpu:               0.1 elap:               0.2
 (Enter /opt/gaussian/g16_legacy/l401.exe)
 ExpMin= 1.61D-01 ExpMax= 5.48D+03 ExpMxC= 8.25D+02 IAcc=3 IRadAn=         5 AccDes= 0.00D+00
 Harris functional with IExCor=  205 and IRadAn=       5 diagonalized for initial guess.
 HarFok:  IExCor=  205 AccDes= 0.00D+00 IRadAn=         5 IDoV= 1 UseB2=F ITyADJ=14
 ICtDFT=  3500011 ScaDFX=  1.000000  1.000000  1.000000  1.000000
 FoFCou: FMM=F IPFlag=           0 FMFlag=      100000 FMFlg1=           0
         NFxFlg=           0 DoJE=T BraDBF=F KetDBF=T FulRan=T
         wScrn=  0.000000 ICntrl=       500 IOpCl=  0 I1Cent=   200000004 NGrid=           0
         NMat0=    1 NMatS0=      1 NMatT0=    0 NMatD0=    1 NMtDS0=    0 NMtDT0=    0
 Petite list used in FoFCou.
 Harris En= -670.658452462616    
 JPrj=0 DoOrth=F DoCkMO=F.
 Leave Link  401 at Thu May  6 01:19:57 2021, MaxMem=   524288000 cpu:               7.1 elap:               3.8
 (Enter /opt/gaussian/g16_legacy/l502.exe)
 Integral symmetry usage will be decided dynamically.
 Closed shell SCF:
 Using DIIS extrapolation, IDIIS=  1040.
 NGot=   524288000 LenX=   524144919 LenY=   524075309
 Requested convergence on RMS density matrix=1.00D-08 within 128 cycles.
 Requested convergence on MAX density matrix=1.00D-06.
 Requested convergence on             energy=1.00D-06.
 No special actions if energy rises.
 Fock matrices will be formed incrementally for  20 cycles.
 Integral accuracy reduced to 1.0D-05 until final iterations.

 Cycle   1  Pass 0  IDiag  1:
 FoFJK:  IHMeth= 1 ICntrl=       0 DoSepK=F KAlg= 0 I1Cent=           0 FoldK=F
 IRaf= 680000000 NMat=       1 IRICut=       1 DoRegI=T DoRafI=F ISym2E= 0 IDoP0=0 IntGTp=1.
 FoFCou: FMM=F IPFlag=           0 FMFlag=      100000 FMFlg1=           0
         NFxFlg=           0 DoJE=F BraDBF=F KetDBF=F FulRan=T
         wScrn=  0.000000 ICntrl=         0 IOpCl=  0 I1Cent=           0 NGrid=           0
         NMat0=    1 NMatS0=      1 NMatT0=    0 NMatD0=    1 NMtDS0=    0 NMtDT0=    0
 Symmetry not used in FoFCou.
 E= -668.738116314416    
 DIIS: error= 6.55D-02 at cycle   1 NSaved=   1.
 NSaved= 1 IEnMin= 1 EnMin= -668.738116314416     IErMin= 1 ErrMin= 6.55D-02
 ErrMax= 6.55D-02  0.00D+00 EMaxC= 1.00D-01 BMatC= 1.18D+00 BMatP= 1.18D+00
 IDIUse=3 WtCom= 3.45D-01 WtEn= 6.55D-01
 Coeff-Com:  0.100D+01
 Coeff-En:   0.100D+01
 Coeff:      0.100D+01
 Gap=     0.556 Goal=   None    Shift=    0.000
 GapD=    0.556 DampG=2.000 DampE=0.500 DampFc=1.0000 IDamp=-1.
 RMSDP=4.60D-03 MaxDP=1.20D-01              OVMax= 1.51D-01

 Cycle   2  Pass 0  IDiag  1:
 RMSU=  4.48D-03    CP:  9.48D-01
 E= -669.358397660179     Delta-E=       -0.620281345763 Rises=F Damp=F
 DIIS: error= 3.68D-02 at cycle   2 NSaved=   2.
 NSaved= 2 IEnMin= 2 EnMin= -669.358397660179     IErMin= 2 ErrMin= 3.68D-02
 ErrMax= 3.68D-02  0.00D+00 EMaxC= 1.00D-01 BMatC= 2.18D-01 BMatP= 1.18D+00
 IDIUse=3 WtCom= 6.32D-01 WtEn= 3.68D-01
 Coeff-Com:  0.247D+00 0.753D+00
 Coeff-En:   0.000D+00 0.100D+01
 Coeff:      0.156D+00 0.844D+00
 Gap=     0.562 Goal=   None    Shift=    0.000
 RMSDP=1.86D-03 MaxDP=8.78D-02 DE=-6.20D-01 OVMax= 1.25D-01

 Cycle   3  Pass 0  IDiag  1:
 RMSU=  1.47D-03    CP:  9.57D-01  7.50D-01
 E= -669.503645278357     Delta-E=       -0.145247618178 Rises=F Damp=F
 DIIS: error= 2.00D-02 at cycle   3 NSaved=   3.
 NSaved= 3 IEnMin= 3 EnMin= -669.503645278357     IErMin= 3 ErrMin= 2.00D-02
 ErrMax= 2.00D-02  0.00D+00 EMaxC= 1.00D-01 BMatC= 4.19D-02 BMatP= 2.18D-01
 IDIUse=3 WtCom= 8.00D-01 WtEn= 2.00D-01
 Coeff-Com: -0.962D-02 0.286D+00 0.723D+00
 Coeff-En:   0.000D+00 0.000D+00 0.100D+01
 Coeff:     -0.770D-02 0.229D+00 0.779D+00
 Gap=     0.427 Goal=   None    Shift=    0.000
 RMSDP=6.55D-04 MaxDP=3.51D-02 DE=-1.45D-01 OVMax= 5.55D-02

 Cycle   4  Pass 0  IDiag  1:
 RMSU=  4.11D-04    CP:  9.55D-01  8.37D-01  7.78D-01
 E= -669.532871570494     Delta-E=       -0.029226292137 Rises=F Damp=F
 DIIS: error= 6.77D-03 at cycle   4 NSaved=   4.
 NSaved= 4 IEnMin= 4 EnMin= -669.532871570494     IErMin= 4 ErrMin= 6.77D-03
 ErrMax= 6.77D-03  0.00D+00 EMaxC= 1.00D-01 BMatC= 3.96D-03 BMatP= 4.19D-02
 IDIUse=3 WtCom= 9.32D-01 WtEn= 6.77D-02
 Coeff-Com: -0.134D-01 0.466D-01 0.307D+00 0.660D+00
 Coeff-En:   0.000D+00 0.000D+00 0.000D+00 0.100D+01
 Coeff:     -0.125D-01 0.434D-01 0.286D+00 0.683D+00
 Gap=     0.412 Goal=   None    Shift=    0.000
 RMSDP=1.92D-04 MaxDP=1.12D-02 DE=-2.92D-02 OVMax= 1.70D-02

 Cycle   5  Pass 0  IDiag  1:
 RMSU=  9.94D-05    CP:  9.55D-01  8.35D-01  8.61D-01  7.35D-01
 E= -669.535941808382     Delta-E=       -0.003070237888 Rises=F Damp=F
 DIIS: error= 5.70D-04 at cycle   5 NSaved=   5.
 NSaved= 5 IEnMin= 5 EnMin= -669.535941808382     IErMin= 5 ErrMin= 5.70D-04
 ErrMax= 5.70D-04  0.00D+00 EMaxC= 1.00D-01 BMatC= 7.72D-05 BMatP= 3.96D-03
 IDIUse=3 WtCom= 9.94D-01 WtEn= 5.70D-03
 Coeff-Com:  0.209D-02-0.214D-01-0.799D-01-0.131D-01 0.111D+01
 Coeff-En:   0.000D+00 0.000D+00 0.000D+00 0.000D+00 0.100D+01
 Coeff:      0.208D-02-0.212D-01-0.794D-01-0.130D-01 0.111D+01
 Gap=     0.414 Goal=   None    Shift=    0.000
 RMSDP=5.41D-05 MaxDP=2.00D-03 DE=-3.07D-03 OVMax= 4.91D-03

 Cycle   6  Pass 0  IDiag  1:
 RMSU=  2.48D-05    CP:  9.55D-01  8.38D-01  8.73D-01  8.25D-01  1.24D+00
 E= -669.536064752412     Delta-E=       -0.000122944030 Rises=F Damp=F
 DIIS: error= 2.59D-04 at cycle   6 NSaved=   6.
 NSaved= 6 IEnMin= 6 EnMin= -669.536064752412     IErMin= 6 ErrMin= 2.59D-04
 ErrMax= 2.59D-04  0.00D+00 EMaxC= 1.00D-01 BMatC= 5.81D-06 BMatP= 7.72D-05
 IDIUse=3 WtCom= 9.97D-01 WtEn= 2.59D-03
 Coeff-Com:  0.123D-02-0.690D-02-0.342D-01-0.469D-01 0.132D+00 0.955D+00
 Coeff-En:   0.000D+00 0.000D+00 0.000D+00 0.000D+00 0.000D+00 0.100D+01
 Coeff:      0.123D-02-0.688D-02-0.341D-01-0.468D-01 0.132D+00 0.955D+00
 Gap=     0.414 Goal=   None    Shift=    0.000
 RMSDP=1.74D-05 MaxDP=5.39D-04 DE=-1.23D-04 OVMax= 1.68D-03

 Cycle   7  Pass 0  IDiag  1:
 RMSU=  8.74D-06    CP:  9.55D-01  8.38D-01  8.76D-01  8.37D-01  1.36D+00
                    CP:  1.18D+00
 E= -669.536079793711     Delta-E=       -0.000015041299 Rises=F Damp=F
 DIIS: error= 1.42D-04 at cycle   7 NSaved=   7.
 NSaved= 7 IEnMin= 7 EnMin= -669.536079793711     IErMin= 7 ErrMin= 1.42D-04
 ErrMax= 1.42D-04  0.00D+00 EMaxC= 1.00D-01 BMatC= 1.15D-06 BMatP= 5.81D-06
 IDIUse=3 WtCom= 9.99D-01 WtEn= 1.42D-03
 Coeff-Com: -0.270D-03 0.273D-02 0.103D-01 0.332D-02-0.154D+00 0.739D-02
 Coeff-Com:  0.113D+01
 Coeff-En:   0.000D+00 0.000D+00 0.000D+00 0.000D+00 0.000D+00 0.000D+00
 Coeff-En:   0.100D+01
 Coeff:     -0.270D-03 0.273D-02 0.103D-01 0.331D-02-0.153D+00 0.738D-02
 Coeff:      0.113D+01
 Gap=     0.414 Goal=   None    Shift=    0.000
 RMSDP=8.99D-06 MaxDP=5.08D-04 DE=-1.50D-05 OVMax= 1.36D-03

 Initial convergence to 1.0D-05 achieved.  Increase integral accuracy.
 Cycle   8  Pass 1  IDiag  1:
 E= -669.536084779461     Delta-E=       -0.000004985750 Rises=F Damp=F
 DIIS: error= 8.21D-05 at cycle   1 NSaved=   1.
 NSaved= 1 IEnMin= 1 EnMin= -669.536084779461     IErMin= 1 ErrMin= 8.21D-05
 ErrMax= 8.21D-05  0.00D+00 EMaxC= 1.00D-01 BMatC= 3.41D-07 BMatP= 3.41D-07
 IDIUse=1 WtCom= 1.00D+00 WtEn= 0.00D+00
 Coeff-Com:  0.100D+01
 Coeff:      0.100D+01
 Gap=     0.414 Goal=   None    Shift=    0.000
 RMSDP=8.99D-06 MaxDP=5.08D-04 DE=-4.99D-06 OVMax= 5.31D-04

 Cycle   9  Pass 1  IDiag  1:
 RMSU=  7.51D-06    CP:  1.00D+00
 E= -669.536085765626     Delta-E=       -0.000000986166 Rises=F Damp=F
 DIIS: error= 5.13D-05 at cycle   2 NSaved=   2.
 NSaved= 2 IEnMin= 2 EnMin= -669.536085765626     IErMin= 2 ErrMin= 5.13D-05
 ErrMax= 5.13D-05  0.00D+00 EMaxC= 1.00D-01 BMatC= 1.14D-07 BMatP= 3.41D-07
 IDIUse=1 WtCom= 1.00D+00 WtEn= 0.00D+00
 Coeff-Com:  0.173D-02 0.998D+00
 Coeff:      0.173D-02 0.998D+00
 Gap=     0.414 Goal=   None    Shift=    0.000
 RMSDP=2.27D-06 MaxDP=1.10D-04 DE=-9.86D-07 OVMax= 3.84D-04

 Cycle  10  Pass 1  IDiag  1:
 RMSU=  2.02D-06    CP:  1.00D+00  1.14D+00
 E= -669.536086172001     Delta-E=       -0.000000406375 Rises=F Damp=F
 DIIS: error= 3.80D-05 at cycle   3 NSaved=   3.
 NSaved= 3 IEnMin= 3 EnMin= -669.536086172001     IErMin= 3 ErrMin= 3.80D-05
 ErrMax= 3.80D-05  0.00D+00 EMaxC= 1.00D-01 BMatC= 5.25D-08 BMatP= 1.14D-07
 IDIUse=1 WtCom= 1.00D+00 WtEn= 0.00D+00
 Coeff-Com: -0.412D+00 0.109D+00 0.130D+01
 Coeff:     -0.412D+00 0.109D+00 0.130D+01
 Gap=     0.414 Goal=   None    Shift=    0.000
 RMSDP=2.65D-06 MaxDP=9.93D-05 DE=-4.06D-07 OVMax= 3.96D-04

 Cycle  11  Pass 1  IDiag  1:
 RMSU=  1.46D-06    CP:  1.00D+00  1.31D+00  1.89D+00
 E= -669.536086454067     Delta-E=       -0.000000282066 Rises=F Damp=F
 DIIS: error= 1.17D-05 at cycle   4 NSaved=   4.
 NSaved= 4 IEnMin= 4 EnMin= -669.536086454067     IErMin= 4 ErrMin= 1.17D-05
 ErrMax= 1.17D-05  0.00D+00 EMaxC= 1.00D-01 BMatC= 6.52D-09 BMatP= 5.25D-08
 IDIUse=1 WtCom= 1.00D+00 WtEn= 0.00D+00
 Coeff-Com: -0.107D-01-0.254D+00 0.118D-01 0.125D+01
 Coeff:     -0.107D-01-0.254D+00 0.118D-01 0.125D+01
 Gap=     0.414 Goal=   None    Shift=    0.000
 RMSDP=1.32D-06 MaxDP=5.15D-05 DE=-2.82D-07 OVMax= 2.05D-04

 Cycle  12  Pass 1  IDiag  1:
 RMSU=  2.23D-07    CP:  1.00D+00  1.37D+00  2.44D+00  1.35D+00
 E= -669.536086493534     Delta-E=       -0.000000039466 Rises=F Damp=F
 DIIS: error= 1.92D-06 at cycle   5 NSaved=   5.
 NSaved= 5 IEnMin= 5 EnMin= -669.536086493534     IErMin= 5 ErrMin= 1.92D-06
 ErrMax= 1.92D-06  0.00D+00 EMaxC= 1.00D-01 BMatC= 9.24D-10 BMatP= 6.52D-09
 IDIUse=1 WtCom= 1.00D+00 WtEn= 0.00D+00
 Coeff-Com:  0.228D-01-0.116D+00-0.752D-01 0.537D+00 0.631D+00
 Coeff:      0.228D-01-0.116D+00-0.752D-01 0.537D+00 0.631D+00
 Gap=     0.414 Goal=   None    Shift=    0.000
 RMSDP=1.34D-07 MaxDP=6.19D-06 DE=-3.95D-08 OVMax= 1.61D-05

 Cycle  13  Pass 1  IDiag  1:
 RMSU=  8.50D-08    CP:  1.00D+00  1.37D+00  2.48D+00  1.39D+00  8.62D-01
 E= -669.536086494546     Delta-E=       -0.000000001013 Rises=F Damp=F
 DIIS: error= 9.89D-07 at cycle   6 NSaved=   6.
 NSaved= 6 IEnMin= 6 EnMin= -669.536086494546     IErMin= 6 ErrMin= 9.89D-07
 ErrMax= 9.89D-07  0.00D+00 EMaxC= 1.00D-01 BMatC= 4.16D-11 BMatP= 9.24D-10
 IDIUse=1 WtCom= 1.00D+00 WtEn= 0.00D+00
 Coeff-Com: -0.730D-03 0.398D-01 0.625D-02-0.197D+00-0.990D-01 0.125D+01
 Coeff:     -0.730D-03 0.398D-01 0.625D-02-0.197D+00-0.990D-01 0.125D+01
 Gap=     0.414 Goal=   None    Shift=    0.000
 RMSDP=5.68D-08 MaxDP=2.21D-06 DE=-1.01D-09 OVMax= 5.82D-06

 Cycle  14  Pass 1  IDiag  1:
 RMSU=  2.70D-08    CP:  1.00D+00  1.37D+00  2.49D+00  1.40D+00  1.00D+00
                    CP:  1.33D+00
 E= -669.536086494694     Delta-E=       -0.000000000148 Rises=F Damp=F
 DIIS: error= 3.27D-07 at cycle   7 NSaved=   7.
 NSaved= 7 IEnMin= 7 EnMin= -669.536086494694     IErMin= 7 ErrMin= 3.27D-07
 ErrMax= 3.27D-07  0.00D+00 EMaxC= 1.00D-01 BMatC= 7.49D-12 BMatP= 4.16D-11
 IDIUse=1 WtCom= 1.00D+00 WtEn= 0.00D+00
 Coeff-Com: -0.275D-02 0.212D-01 0.101D-01-0.104D+00-0.111D+00 0.302D+00
 Coeff-Com:  0.883D+00
 Coeff:     -0.275D-02 0.212D-01 0.101D-01-0.104D+00-0.111D+00 0.302D+00
 Coeff:      0.883D+00
 Gap=     0.414 Goal=   None    Shift=    0.000
 RMSDP=1.70D-08 MaxDP=8.70D-07 DE=-1.48D-10 OVMax= 1.90D-06

 Cycle  15  Pass 1  IDiag  1:
 RMSU=  9.48D-09    CP:  1.00D+00  1.37D+00  2.49D+00  1.41D+00  1.02D+00
                    CP:  1.45D+00  1.08D+00
 E= -669.536086494710     Delta-E=       -0.000000000016 Rises=F Damp=F
 DIIS: error= 9.37D-08 at cycle   8 NSaved=   8.
 NSaved= 8 IEnMin= 8 EnMin= -669.536086494710     IErMin= 8 ErrMin= 9.37D-08
 ErrMax= 9.37D-08  0.00D+00 EMaxC= 1.00D-01 BMatC= 1.29D-12 BMatP= 7.49D-12
 IDIUse=1 WtCom= 1.00D+00 WtEn= 0.00D+00
 Coeff-Com: -0.312D-03-0.237D-02 0.136D-02 0.110D-01-0.130D-01-0.112D+00
 Coeff-Com:  0.154D+00 0.961D+00
 Coeff:     -0.312D-03-0.237D-02 0.136D-02 0.110D-01-0.130D-01-0.112D+00
 Coeff:      0.154D+00 0.961D+00
 Gap=     0.414 Goal=   None    Shift=    0.000
 RMSDP=6.46D-09 MaxDP=3.17D-07 DE=-1.57D-11 OVMax= 5.53D-07

 SCF Done:  E(RHF) =  -669.536086495     A.U. after   15 cycles
            NFock= 15  Conv=0.65D-08     -V/T= 2.0024
 KE= 6.679565871537D+02 PE=-3.346346086030D+03 EE= 1.117478389521D+03
 Leave Link  502 at Thu May  6 01:20:21 2021, MaxMem=   524288000 cpu:              47.4 elap:              24.0
 (Enter /opt/gaussian/g16_legacy/l801.exe)
 ExpMin= 1.61D-01 ExpMax= 5.48D+03 ExpMxC= 8.25D+02 IAcc=3 IRadAn=         5 AccDes= 0.00D+00
 HarFok:  IExCor=  205 AccDes= 0.00D+00 IRadAn=         5 IDoV=-2 UseB2=F ITyADJ=14
 ICtDFT= 12500011 ScaDFX=  1.000000  1.000000  1.000000  1.000000
 Largest valence mixing into a core orbital is  1.95D-04
 Largest core mixing into a valence orbital is  4.00D-05
 Range of M.O.s used for correlation:    16   263
 NBasis=   263 NAE=    57 NBE=    57 NFC=    15 NFV=     0
 NROrb=    248 NOA=    42 NOB=    42 NVA=   206 NVB=   206
 Leave Link  801 at Thu May  6 01:20:22 2021, MaxMem=   524288000 cpu:               1.1 elap:               0.7
 (Enter /opt/gaussian/g16_legacy/l906.exe)
 FulOut=F Deriv=F AODrv=F NAtomX=    34
   MMem=         113  MDisk=          42 MDiskD=          42
  W3Min=     2275476 MinDsk=     2420380 NBas6D=         263
 NBas2D=       35121    NTT=       34716    LW2=     2000000
    MDV=   523961061 MDiskM=       27564 NBas2p=       22221
 Fully direct method using O(OVN) memory.
 IMap=   1   2   3   4   5   6   7   8   9  10  11  12  13  14  15  16  17  18  19  20
 IMap=  21  22  23  24  25  26  27  28  29  30  31  32  33  34  35  36  37  38  39  40
 IMap=  41  42
 JobTyp=1 Pass  1:  I=   1 to  42 NPSUse=  2 ParTrn=T ParDer=T DoDerP=F.
 Spin components of T(2) and E(2):
     alpha-alpha T2 =       0.9486458842D-01 E2=     -0.2718182967D+00
     alpha-beta  T2 =       0.5259133254D+00 E2=     -0.1547455943D+01
     beta-beta   T2 =       0.9486458842D-01 E2=     -0.2718182967D+00
 The integrals were generated   1 times.
 ANorm=    0.1309825371D+01
 E2 =    -0.2091092537D+01 EUMP2 =    -0.67162717903148D+03
 Leave Link  906 at Thu May  6 01:21:22 2021, MaxMem=   524288000 cpu:             119.4 elap:              59.9
 (Enter /opt/gaussian/g16_legacy/l601.exe)
 Copying SCF densities to generalized density rwf, IOpCl= 0 IROHF=0.

 **********************************************************************

            Population analysis using the SCF density.

 **********************************************************************

 Orbital symmetries:
       Occupied  (A) (A) (A) (A) (A) (A) (A) (A) (A) (A) (A) (A)
                 (A) (A) (A) (A) (A) (A) (A) (A) (A) (A) (A) (A)
                 (A) (A) (A) (A) (A) (A) (A) (A) (A) (A) (A) (A)
                 (A) (A) (A) (A) (A) (A) (A) (A) (A) (A) (A) (A)
                 (A) (A) (A) (A) (A) (A) (A) (A) (A)
       Virtual   (A) (A) (A) (A) (A) (A) (A) (A) (A) (A) (A) (A)
                 (A) (A) (A) (A) (A) (A) (A) (A) (A) (A) (A) (A)
                 (A) (A) (A) (A) (A) (A) (A) (A) (A) (A) (A) (A)
                 (A) (A) (A) (A) (A) (A) (A) (A) (A) (A) (A) (A)
                 (A) (A) (A) (A) (A) (A) (A) (A) (A) (A) (A) (A)
                 (A) (A) (A) (A) (A) (A) (A) (A) (A) (A) (A) (A)
                 (A) (A) (A) (A) (A) (A) (A) (A) (A) (A) (A) (A)
                 (A) (A) (A) (A) (A) (A) (A) (A) (A) (A) (A) (A)
                 (A) (A) (A) (A) (A) (A) (A) (A) (A) (A) (A) (A)
                 (A) (A) (A) (A) (A) (A) (A) (A) (A) (A) (A) (A)
                 (A) (A) (A) (A) (A) (A) (A) (A) (A) (A) (A) (A)
                 (A) (A) (A) (A) (A) (A) (A) (A) (A) (A) (A) (A)
                 (A) (A) (A) (A) (A) (A) (A) (A) (A) (A) (A) (A)
                 (A) (A) (A) (A) (A) (A) (A) (A) (A) (A) (A) (A)
                 (A) (A) (A) (A) (A) (A) (A) (A) (A) (A) (A) (A)
                 (A) (A) (A) (A) (A) (A) (A) (A) (A) (A) (A) (A)
                 (A) (A) (A) (A) (A) (A) (A) (A) (A) (A) (A) (A)
                 (A) (A)
 The electronic state is 1-A.
 Alpha  occ. eigenvalues --  -20.60966 -20.60955 -15.85993 -11.31309 -11.27870
 Alpha  occ. eigenvalues --  -11.27867 -11.27607 -11.26876 -11.26867 -11.20890
 Alpha  occ. eigenvalues --  -11.20542 -11.20434 -11.20156 -11.19800 -11.19462
 Alpha  occ. eigenvalues --   -1.60020  -1.39577  -1.19476  -1.08881  -1.07326
 Alpha  occ. eigenvalues --   -1.04871  -1.02362  -0.95725  -0.94872  -0.86272
 Alpha  occ. eigenvalues --   -0.85904  -0.82561  -0.78486  -0.77613  -0.77025
 Alpha  occ. eigenvalues --   -0.72211  -0.71333  -0.70584  -0.65132  -0.64874
 Alpha  occ. eigenvalues --   -0.63974  -0.62218  -0.59772  -0.58288  -0.56416
 Alpha  occ. eigenvalues --   -0.55373  -0.54200  -0.53203  -0.52963  -0.51560
 Alpha  occ. eigenvalues --   -0.51291  -0.49025  -0.48966  -0.48846  -0.46762
 Alpha  occ. eigenvalues --   -0.45539  -0.45005  -0.44576  -0.44408  -0.42623
 Alpha  occ. eigenvalues --   -0.37455  -0.36472
 Alpha virt. eigenvalues --    0.04921   0.11183   0.16422   0.21315   0.23845
 Alpha virt. eigenvalues --    0.25481   0.27237   0.27682   0.28149   0.28675
 Alpha virt. eigenvalues --    0.29082   0.30890   0.32362   0.32485   0.32773
 Alpha virt. eigenvalues --    0.33429   0.34211   0.34993   0.35085   0.35924
 Alpha virt. eigenvalues --    0.35975   0.36759   0.37479   0.37804   0.40631
 Alpha virt. eigenvalues --    0.41773   0.43196   0.44224   0.46210   0.46411
 Alpha virt. eigenvalues --    0.46804   0.48898   0.49640   0.50962   0.56934
 Alpha virt. eigenvalues --    0.67214   0.68743   0.70195   0.70359   0.70657
 Alpha virt. eigenvalues --    0.71734   0.72636   0.76090   0.77710   0.77811
 Alpha virt. eigenvalues --    0.78624   0.78861   0.79130   0.79286   0.79736
 Alpha virt. eigenvalues --    0.80625   0.81415   0.82023   0.85037   0.85833
 Alpha virt. eigenvalues --    0.87575   0.87866   0.87985   0.88956   0.93488
 Alpha virt. eigenvalues --    0.96491   0.96785   0.97357   0.99636   1.00428
 Alpha virt. eigenvalues --    1.02577   1.02867   1.04448   1.06430   1.06713
 Alpha virt. eigenvalues --    1.08343   1.08417   1.08668   1.08846   1.11929
 Alpha virt. eigenvalues --    1.12896   1.14522   1.15190   1.16976   1.17504
 Alpha virt. eigenvalues --    1.17731   1.19086   1.19493   1.20120   1.21012
 Alpha virt. eigenvalues --    1.21840   1.21982   1.22271   1.22647   1.22746
 Alpha virt. eigenvalues --    1.23740   1.23935   1.25074   1.25939   1.27376
 Alpha virt. eigenvalues --    1.28405   1.28826   1.29663   1.31236   1.32270
 Alpha virt. eigenvalues --    1.37609   1.40715   1.41495   1.46956   1.47851
 Alpha virt. eigenvalues --    1.52412   1.53519   1.56973   1.60791   1.65251
 Alpha virt. eigenvalues --    1.66463   1.66944   1.67018   1.68055   1.68441
 Alpha virt. eigenvalues --    1.72087   1.72457   1.73179   1.73368   1.73869
 Alpha virt. eigenvalues --    1.75407   1.80628   1.82355   1.93937   1.97199
 Alpha virt. eigenvalues --    1.99167   1.99838   2.04420   2.04432   2.06345
 Alpha virt. eigenvalues --    2.09886   2.12288   2.12985   2.14313   2.15967
 Alpha virt. eigenvalues --    2.18921   2.21489   2.21542   2.23554   2.24575
 Alpha virt. eigenvalues --    2.26794   2.26879   2.27047   2.28902   2.32711
 Alpha virt. eigenvalues --    2.34186   2.35069   2.36038   2.37140   2.37666
 Alpha virt. eigenvalues --    2.40677   2.42779   2.43560   2.44203   2.44545
 Alpha virt. eigenvalues --    2.45569   2.46870   2.57849   2.57898   2.57967
 Alpha virt. eigenvalues --    2.58470   2.59415   2.60676   2.67898   2.68807
 Alpha virt. eigenvalues --    2.69004   2.70063   2.78080   2.78735   2.81060
 Alpha virt. eigenvalues --    2.81223   2.83359   2.91596   2.91824   2.92077
 Alpha virt. eigenvalues --    2.92701   2.96263   2.99597   2.99789   3.04569
 Alpha virt. eigenvalues --    3.04658   3.06749   3.10229   3.14946   3.19768
 Alpha virt. eigenvalues --    3.23766   3.25273   3.29452   3.43655   3.52762
 Alpha virt. eigenvalues --    3.76867   4.13263   4.28750   4.37948   4.47839
 Alpha virt. eigenvalues --    4.50558   4.52855   4.56688   4.63761   4.71774
 Alpha virt. eigenvalues --    4.72940   4.76653   4.80933   4.89307   5.00986
 Alpha virt. eigenvalues --    5.08862
          Condensed to atoms (all electrons):
               1          2          3          4          5          6
     1  C    4.875780   0.542575  -0.045803  -0.028606  -0.045719   0.542502
     2  C    0.542575   4.932077   0.523031  -0.040333  -0.030040  -0.043900
     3  C   -0.045803   0.523031   4.919316   0.547668  -0.053034  -0.030030
     4  C   -0.028606  -0.040333   0.547668   4.823575   0.548803  -0.040271
     5  C   -0.045719  -0.030040  -0.053034   0.548803   4.918197   0.523087
     6  C    0.542502  -0.043900  -0.030030  -0.040271   0.523087   4.932089
     7  H    0.381306  -0.027956   0.002171   0.000219   0.002171  -0.027964
     8  H   -0.027644   0.382570  -0.027324   0.001553   0.000203   0.002330
     9  H    0.001924  -0.024005   0.368574  -0.019705   0.002552  -0.000058
    10  H    0.001924  -0.000058   0.002553  -0.019652   0.368536  -0.024008
    11  H   -0.027660   0.002328   0.000205   0.001571  -0.027350   0.382578
    12  N    0.000008   0.001511  -0.044383   0.242621  -0.044414   0.001500
    13  O   -0.000004  -0.000027   0.003774  -0.088186   0.003896   0.000775
    14  O   -0.000004   0.000775   0.004082  -0.086889   0.003624  -0.000027
    15  C    0.000000  -0.000000  -0.000000   0.000000  -0.000000   0.000000
    16  C    0.000000  -0.000000  -0.000000   0.000000  -0.000000   0.000000
    17  C   -0.000000   0.000000   0.000000  -0.000000   0.000000   0.000000
    18  H    0.000000   0.000000   0.000000  -0.000000   0.000000  -0.000000
    19  H    0.000000   0.000000  -0.000000  -0.000000   0.000000  -0.000000
    20  H    0.000000  -0.000000  -0.000002   0.000012  -0.000000  -0.000000
    21  H    0.000000   0.000000   0.000000   0.000000  -0.000000   0.000000
    22  H    0.000000  -0.000000  -0.000000   0.000000   0.000000  -0.000000
    23  H   -0.000000   0.000000   0.000000  -0.000000  -0.000000  -0.000000
    24  H    0.000000   0.000000  -0.000000   0.000002  -0.000000  -0.000000
    25  C    0.000000  -0.000000  -0.000000  -0.000000   0.000000  -0.000000
    26  C   -0.000000   0.000000   0.000000   0.000000  -0.000000   0.000000
    27  C    0.000000   0.000000   0.000000  -0.000000  -0.000000   0.000000
    28  H    0.000000   0.000000  -0.000000  -0.000000  -0.000000  -0.000000
    29  H   -0.000000  -0.000000   0.000000  -0.000000   0.000000  -0.000000
    30  H    0.000000  -0.000000  -0.000000  -0.000000   0.000000  -0.000000
    31  H    0.000000   0.000000  -0.000000  -0.000000  -0.000000  -0.000000
    32  H    0.000000  -0.000000  -0.000000   0.000000   0.000000  -0.000000
    33  H    0.000000   0.000000  -0.000000  -0.000000  -0.000000   0.000000
    34  H   -0.000000  -0.000000   0.000000   0.000000   0.000000  -0.000000
               7          8          9         10         11         12
     1  C    0.381306  -0.027644   0.001924   0.001924  -0.027660   0.000008
     2  C   -0.027956   0.382570  -0.024005  -0.000058   0.002328   0.001511
     3  C    0.002171  -0.027324   0.368574   0.002553   0.000205  -0.044383
     4  C    0.000219   0.001553  -0.019705  -0.019652   0.001571   0.242621
     5  C    0.002171   0.000203   0.002552   0.368536  -0.027350  -0.044414
     6  C   -0.027964   0.002330  -0.000058  -0.024008   0.382578   0.001500
     7  H    0.446537  -0.001192  -0.000071  -0.000071  -0.001193   0.000002
     8  H   -0.001192   0.446850  -0.001108   0.000007  -0.000093  -0.000049
     9  H   -0.000071  -0.001108   0.392535  -0.000075   0.000007  -0.005339
    10  H   -0.000071   0.000007  -0.000075   0.392413  -0.001109  -0.005338
    11  H   -0.001193  -0.000093   0.000007  -0.001109   0.446913  -0.000049
    12  N    0.000002  -0.000049  -0.005339  -0.005338  -0.000049   5.738207
    13  O    0.000000   0.000000   0.000047   0.008957  -0.000001   0.314394
    14  O    0.000000  -0.000001   0.008980   0.000046   0.000000   0.309959
    15  C   -0.000000  -0.000000  -0.000000  -0.000000  -0.000000  -0.000001
    16  C    0.000000   0.000000   0.000000   0.000000  -0.000000   0.000047
    17  C   -0.000000   0.000000   0.000000   0.000000   0.000000  -0.000002
    18  H    0.000000   0.000000   0.000000   0.000000   0.000000   0.000000
    19  H    0.000000  -0.000000   0.000000   0.000000   0.000000   0.000000
    20  H    0.000000  -0.000000   0.000001   0.000000  -0.000000  -0.000047
    21  H    0.000000  -0.000000   0.000000  -0.000000  -0.000000   0.000010
    22  H    0.000000  -0.000000   0.000000  -0.000000   0.000000   0.000000
    23  H   -0.000000  -0.000000  -0.000000  -0.000000   0.000000   0.000000
    24  H    0.000000  -0.000000  -0.000000  -0.000000  -0.000000  -0.000011
    25  C    0.000000  -0.000000   0.000000   0.000000   0.000000   0.000000
    26  C   -0.000000   0.000000  -0.000000  -0.000000  -0.000000  -0.000000
    27  C   -0.000000   0.000000   0.000000   0.000000   0.000000   0.000000
    28  H    0.000000  -0.000000   0.000000   0.000000   0.000000   0.000000
    29  H    0.000000   0.000000   0.000000   0.000000   0.000000   0.000000
    30  H    0.000000   0.000000   0.000000   0.000000   0.000000   0.000000
    31  H    0.000000  -0.000000   0.000000   0.000000  -0.000000   0.000000
    32  H    0.000000  -0.000000   0.000000   0.000000  -0.000000   0.000000
    33  H    0.000000  -0.000000   0.000000  -0.000000  -0.000000   0.000000
    34  H   -0.000000   0.000000  -0.000000   0.000000   0.000000  -0.000000
              13         14         15         16         17         18
     1  C   -0.000004  -0.000004   0.000000   0.000000  -0.000000   0.000000
     2  C   -0.000027   0.000775  -0.000000  -0.000000   0.000000   0.000000
     3  C    0.003774   0.004082  -0.000000  -0.000000   0.000000   0.000000
     4  C   -0.088186  -0.086889   0.000000   0.000000  -0.000000  -0.000000
     5  C    0.003896   0.003624  -0.000000  -0.000000   0.000000   0.000000
     6  C    0.000775  -0.000027   0.000000   0.000000   0.000000  -0.000000
     7  H    0.000000   0.000000  -0.000000   0.000000  -0.000000   0.000000
     8  H    0.000000  -0.000001  -0.000000   0.000000   0.000000   0.000000
     9  H    0.000047   0.008980  -0.000000   0.000000   0.000000   0.000000
    10  H    0.008957   0.000046  -0.000000   0.000000   0.000000   0.000000
    11  H   -0.000001   0.000000  -0.000000  -0.000000   0.000000   0.000000
    12  N    0.314394   0.309959  -0.000001   0.000047  -0.000002   0.000000
    13  O    8.304146  -0.088152   0.000000   0.000001  -0.000040  -0.000000
    14  O   -0.088152   8.307065   0.000034  -0.000342  -0.000079  -0.000000
    15  C    0.000000   0.000034   5.094312   0.345350  -0.057141   0.394980
    16  C    0.000001  -0.000342   0.345350   5.062042   0.340768  -0.041168
    17  C   -0.000040  -0.000079  -0.057141   0.340768   5.100124  -0.002940
    18  H   -0.000000  -0.000000   0.394980  -0.041168  -0.002940   0.572262
    19  H   -0.000000  -0.000000   0.393985  -0.040911  -0.002933  -0.032119
    20  H    0.000016   0.002321  -0.043577   0.402046  -0.037814  -0.002910
    21  H    0.000000   0.000113  -0.045237   0.400102  -0.040001   0.004622
    22  H    0.000000  -0.000000  -0.004137  -0.039477   0.389455   0.000172
    23  H   -0.000000  -0.000002  -0.004000  -0.039058   0.390187   0.002705
    24  H    0.000234   0.000166   0.004397  -0.034511   0.394551  -0.000062
    25  C   -0.000000  -0.000002   0.356767  -0.051883   0.004108  -0.042135
    26  C    0.000000   0.000000  -0.052163   0.003935  -0.000086  -0.003403
    27  C   -0.000000   0.000000   0.004078  -0.000084   0.000001  -0.000053
    28  H    0.000000   0.000000  -0.041379  -0.002853  -0.000055  -0.002822
    29  H   -0.000000  -0.000000  -0.041435  -0.003060  -0.000054   0.004511
    30  H   -0.000000  -0.000000  -0.003108  -0.000063  -0.000001   0.002433
    31  H    0.000000   0.000000  -0.003102  -0.000067  -0.000001   0.000240
    32  H   -0.000000  -0.000000  -0.000071  -0.000001  -0.000000  -0.000001
    33  H    0.000000   0.000000  -0.000071  -0.000001  -0.000000   0.000013
    34  H   -0.000000  -0.000000  -0.000088   0.000001  -0.000000   0.000001
              19         20         21         22         23         24
     1  C    0.000000   0.000000   0.000000   0.000000  -0.000000   0.000000
     2  C    0.000000  -0.000000   0.000000  -0.000000   0.000000   0.000000
     3  C   -0.000000  -0.000002   0.000000  -0.000000   0.000000  -0.000000
     4  C   -0.000000   0.000012   0.000000   0.000000  -0.000000   0.000002
     5  C    0.000000  -0.000000  -0.000000   0.000000  -0.000000  -0.000000
     6  C   -0.000000  -0.000000   0.000000  -0.000000  -0.000000  -0.000000
     7  H    0.000000   0.000000   0.000000   0.000000  -0.000000   0.000000
     8  H   -0.000000  -0.000000  -0.000000  -0.000000  -0.000000  -0.000000
     9  H    0.000000   0.000001   0.000000   0.000000  -0.000000  -0.000000
    10  H    0.000000   0.000000  -0.000000  -0.000000  -0.000000  -0.000000
    11  H    0.000000  -0.000000  -0.000000   0.000000   0.000000  -0.000000
    12  N    0.000000  -0.000047   0.000010   0.000000   0.000000  -0.000011
    13  O   -0.000000   0.000016   0.000000   0.000000  -0.000000   0.000234
    14  O   -0.000000   0.002321   0.000113  -0.000000  -0.000002   0.000166
    15  C    0.393985  -0.043577  -0.045237  -0.004137  -0.004000   0.004397
    16  C   -0.040911   0.402046   0.400102  -0.039477  -0.039058  -0.034511
    17  C   -0.002933  -0.037814  -0.040001   0.389455   0.390187   0.394551
    18  H   -0.032119  -0.002910   0.004622   0.000172   0.002705  -0.000062
    19  H    0.574805   0.004393  -0.002956   0.002767   0.000176  -0.000072
    20  H    0.004393   0.533305  -0.029661   0.004101  -0.002774  -0.002462
    21  H   -0.002956  -0.029661   0.565913  -0.002845   0.004259  -0.002490
    22  H    0.002767   0.004101  -0.002845   0.561347  -0.030226  -0.027664
    23  H    0.000176  -0.002774   0.004259  -0.030226   0.556976  -0.026942
    24  H   -0.000072  -0.002462  -0.002490  -0.027664  -0.026942   0.522691
    25  C   -0.042379  -0.003202  -0.003344  -0.000077  -0.000075  -0.000083
    26  C   -0.003458  -0.000053  -0.000060  -0.000000  -0.000000   0.000001
    27  C   -0.000054  -0.000001  -0.000000  -0.000000  -0.000000  -0.000000
    28  H    0.004532   0.002321   0.000231  -0.000001   0.000013   0.000001
    29  H   -0.002828   0.000216   0.002427   0.000013  -0.000001   0.000001
    30  H    0.000242   0.000016  -0.000003   0.000000  -0.000002   0.000000
    31  H    0.002436  -0.000003   0.000017  -0.000002   0.000000   0.000000
    32  H    0.000013   0.000000  -0.000002   0.000000  -0.000000  -0.000000
    33  H   -0.000001  -0.000002   0.000000  -0.000000   0.000000  -0.000000
    34  H    0.000001   0.000000   0.000000  -0.000000  -0.000000   0.000000
              25         26         27         28         29         30
     1  C    0.000000  -0.000000   0.000000   0.000000  -0.000000   0.000000
     2  C   -0.000000   0.000000   0.000000   0.000000  -0.000000  -0.000000
     3  C   -0.000000   0.000000   0.000000  -0.000000   0.000000  -0.000000
     4  C   -0.000000   0.000000  -0.000000  -0.000000  -0.000000  -0.000000
     5  C    0.000000  -0.000000  -0.000000  -0.000000   0.000000   0.000000
     6  C   -0.000000   0.000000   0.000000  -0.000000  -0.000000  -0.000000
     7  H    0.000000  -0.000000  -0.000000   0.000000   0.000000   0.000000
     8  H   -0.000000   0.000000   0.000000  -0.000000   0.000000   0.000000
     9  H    0.000000  -0.000000   0.000000   0.000000   0.000000   0.000000
    10  H    0.000000  -0.000000   0.000000   0.000000   0.000000   0.000000
    11  H    0.000000  -0.000000   0.000000   0.000000   0.000000   0.000000
    12  N    0.000000  -0.000000   0.000000   0.000000   0.000000   0.000000
    13  O   -0.000000   0.000000  -0.000000   0.000000  -0.000000  -0.000000
    14  O   -0.000002   0.000000   0.000000   0.000000  -0.000000  -0.000000
    15  C    0.356767  -0.052163   0.004078  -0.041379  -0.041435  -0.003108
    16  C   -0.051883   0.003935  -0.000084  -0.002853  -0.003060  -0.000063
    17  C    0.004108  -0.000086   0.000001  -0.000055  -0.000054  -0.000001
    18  H   -0.042135  -0.003403  -0.000053  -0.002822   0.004511   0.002433
    19  H   -0.042379  -0.003458  -0.000054   0.004532  -0.002828   0.000242
    20  H   -0.003202  -0.000053  -0.000001   0.002321   0.000216   0.000016
    21  H   -0.003344  -0.000060  -0.000000   0.000231   0.002427  -0.000003
    22  H   -0.000077  -0.000000  -0.000000  -0.000001   0.000013   0.000000
    23  H   -0.000075  -0.000000  -0.000000   0.000013  -0.000001  -0.000002
    24  H   -0.000083   0.000001  -0.000000   0.000001   0.000001   0.000000
    25  C    5.081795   0.352180  -0.057508   0.396225   0.395973  -0.043403
    26  C    0.352180   5.061985   0.340687  -0.042457  -0.042445   0.398840
    27  C   -0.057508   0.340687   5.098270  -0.002942  -0.002941  -0.040208
    28  H    0.396225  -0.042457  -0.002942   0.566733  -0.031458  -0.002992
    29  H    0.395973  -0.042445  -0.002941  -0.031458   0.568975   0.004597
    30  H   -0.043403   0.398840  -0.040208  -0.002992   0.004597   0.566048
    31  H   -0.043405   0.398761  -0.040217   0.004587  -0.002988  -0.031788
    32  H   -0.003706  -0.038837   0.391044   0.000159   0.002646   0.004246
    33  H   -0.003691  -0.038869   0.390979   0.002648   0.000159  -0.002907
    34  H    0.004399  -0.035947   0.393758  -0.000059  -0.000059  -0.002503
              31         32         33         34
     1  C    0.000000   0.000000   0.000000  -0.000000
     2  C    0.000000  -0.000000   0.000000  -0.000000
     3  C   -0.000000  -0.000000  -0.000000   0.000000
     4  C   -0.000000   0.000000  -0.000000   0.000000
     5  C   -0.000000   0.000000  -0.000000   0.000000
     6  C   -0.000000  -0.000000   0.000000  -0.000000
     7  H    0.000000   0.000000   0.000000  -0.000000
     8  H   -0.000000  -0.000000  -0.000000   0.000000
     9  H    0.000000   0.000000   0.000000  -0.000000
    10  H    0.000000   0.000000  -0.000000   0.000000
    11  H   -0.000000  -0.000000  -0.000000   0.000000
    12  N    0.000000   0.000000   0.000000  -0.000000
    13  O    0.000000  -0.000000   0.000000  -0.000000
    14  O    0.000000  -0.000000   0.000000  -0.000000
    15  C   -0.003102  -0.000071  -0.000071  -0.000088
    16  C   -0.000067  -0.000001  -0.000001   0.000001
    17  C   -0.000001  -0.000000  -0.000000  -0.000000
    18  H    0.000240  -0.000001   0.000013   0.000001
    19  H    0.002436   0.000013  -0.000001   0.000001
    20  H   -0.000003   0.000000  -0.000002   0.000000
    21  H    0.000017  -0.000002   0.000000   0.000000
    22  H   -0.000002   0.000000  -0.000000  -0.000000
    23  H    0.000000  -0.000000   0.000000  -0.000000
    24  H    0.000000  -0.000000  -0.000000   0.000000
    25  C   -0.043405  -0.003706  -0.003691   0.004399
    26  C    0.398761  -0.038837  -0.038869  -0.035947
    27  C   -0.040217   0.391044   0.390979   0.393758
    28  H    0.004587   0.000159   0.002648  -0.000059
    29  H   -0.002988   0.002646   0.000159  -0.000059
    30  H   -0.031788   0.004246  -0.002907  -0.002503
    31  H    0.566223  -0.002904   0.004252  -0.002507
    32  H   -0.002904   0.550849  -0.029322  -0.027786
    33  H    0.004252  -0.029322   0.551303  -0.027814
    34  H   -0.002507  -0.027786  -0.027814   0.540860
 Mulliken charges:
               1
     1  C   -0.170580
     2  C   -0.218546
     3  C   -0.170797
     4  C    0.157617
     5  C   -0.170510
     6  C   -0.218602
     7  H    0.226041
     8  H    0.223897
     9  H    0.275741
    10  H    0.275876
    11  H    0.223853
    12  N    0.491374
    13  O   -0.459831
    14  O   -0.461668
    15  C   -0.298393
    16  C   -0.300814
    17  C   -0.478049
    18  H    0.145673
    19  H    0.144359
    20  H    0.173758
    21  H    0.148904
    22  H    0.146572
    23  H    0.148764
    24  H    0.172253
    25  C   -0.296554
    26  C   -0.298609
    27  C   -0.474809
    28  H    0.149568
    29  H    0.147751
    30  H    0.150556
    31  H    0.150466
    32  H    0.153671
    33  H    0.153324
    34  H    0.157743
 Sum of Mulliken charges =  -0.00000
 Mulliken charges with hydrogens summed into heavy atoms:
               1
     1  C    0.055461
     2  C    0.005351
     3  C    0.104943
     4  C    0.157617
     5  C    0.105366
     6  C    0.005251
    12  N    0.491374
    13  O   -0.459831
    14  O   -0.461668
    15  C   -0.008361
    16  C    0.021848
    17  C   -0.010459
    25  C    0.000765
    26  C    0.002413
    27  C   -0.010071
 Electronic spatial extent (au):  <R**2>=           7628.8314
 Charge=             -0.0000 electrons
 Dipole moment (field-independent basis, Debye):
    X=              4.6150    Y=             -3.0629    Z=              0.2302  Tot=              5.5437
 Quadrupole moment (field-independent basis, Debye-Ang):
   XX=            -69.9235   YY=            -93.9360   ZZ=            -94.3192
   XY=             -6.8507   XZ=              1.5659   YZ=              1.7903
 Traceless Quadrupole moment (field-independent basis, Debye-Ang):
   XX=             16.1360   YY=             -7.8765   ZZ=             -8.2596
   XY=             -6.8507   XZ=              1.5659   YZ=              1.7903
 Octapole moment (field-independent basis, Debye-Ang**2):
  XXX=            179.8123  YYY=            -16.5730  ZZZ=             -1.8658  XYY=             31.0869
  XXY=            -18.6323  XXZ=             16.0858  XZZ=             -7.8768  YZZ=              7.0097
  YYZ=             -4.9291  XYZ=              3.9828
 Hexadecapole moment (field-independent basis, Debye-Ang**3):
 XXXX=          -7982.5201 YYYY=          -1680.3232 ZZZZ=           -173.2050 XXXY=           -120.3553
 XXXZ=            109.6921 YYYX=            -68.9498 YYYZ=             18.6270 ZZZX=             -1.3479
 ZZZY=             -1.0994 XXYY=          -1672.5472 XXZZ=          -1538.8439 YYZZ=           -306.5275
 XXYZ=             28.9404 YYXZ=             -8.3079 ZZXY=             18.5650
 N-N= 8.913750228614D+02 E-N=-3.346346082313D+03  KE= 6.679565871537D+02
 Leave Link  601 at Thu May  6 01:21:22 2021, MaxMem=   524288000 cpu:               0.3 elap:               0.3
 (Enter /opt/gaussian/g16_legacy/l9999.exe)
 1\1\GINC-TRUENO93\SP\RMP2-FC\6-31G(d)\C12H19N1O2\JRAMOS\06-May-2021\0\
 \#p 6-31g* mp2\\Input file generated by CHIRIPA (05-May-2021 14:55:20)
 \\0,1\C,0,1.914143,0.,0.\C,0,1.214143,1.211,0.\C,0,-0.183857,1.223,0.\
 C,0,-0.852857,0.,0.\C,0,-0.183857,-1.223,0.\C,0,1.214143,-1.211,0.\H,0
 ,3.000143,0.,0.\H,0,1.755143,2.153,0.\H,0,-0.750857,2.146,0.\H,0,-0.75
 0857,-2.146,0.\H,0,1.755143,-2.153,0.\N,0,-2.332857,0.,0.\O,0,-2.89885
 7,-1.091,0.\O,0,-2.898857,1.091,0.\C,0,-7.05698,3.331437,-1.329356\C,0
 ,-6.29413,2.035331,-1.053397\C,0,-7.197463,0.917227,-0.532218\H,0,-7.5
 54519,3.660142,-0.406668\H,0,-7.853252,3.131644,-2.059717\H,0,-5.49865
 1,2.237808,-0.324815\H,0,-5.798192,1.709776,-1.976801\H,0,-7.983176,0.
 686503,-1.258869\H,0,-7.681934,1.217535,0.402504\H,0,-6.631656,-0.0000
 48,-0.341618\C,0,-6.167492,4.458606,-1.850922\C,0,-6.930342,5.754712,-
 2.126881\C,0,-6.027009,6.872816,-2.64806\H,0,-5.371219,4.658399,-1.120
 56\H,0,-5.669952,4.129901,-2.773609\H,0,-7.42628,6.080267,-1.203477\H,
 0,-7.725821,5.552235,-2.855463\H,0,-5.542538,6.572509,-3.582781\H,0,-5
 .241295,7.103541,-1.921409\H,0,-6.592816,7.790092,-2.83866\\Version=EM
 64L-G16RevA.03\State=1-A\HF=-669.5360865\MP2=-671.627179\RMSD=6.458e-0
 9\PG=C01 [X(C12H19N1O2)]\\@


 TRUST EVERYONE, BUT CUT THE CARDS.
 Job cpu time:       0 days  0 hours  2 minutes 56.7 seconds.
 Elapsed time:       0 days  0 hours  1 minutes 30.0 seconds.
 File lengths (MBytes):  RWF=     43 Int=      0 D2E=      0 Chk=      6 Scr=      1
 Normal termination of Gaussian 16 at Thu May  6 01:21:22 2021.
