 Entering Gaussian System, Link 0=/opt/gaussian/g16_legacy/g16
 Input=gaussian_02706_1_1.com
 Output=gaussian_02706_1_1.log
 Initial command:
 /opt/gaussian/g16_legacy/l1.exe "/scratch-local/jramos/2587713/Gau-18722.inp" -scrdir="/scratch-local/jramos/2587713/"
 Entering Link 1 = /opt/gaussian/g16_legacy/l1.exe PID=     18723.
  
 Copyright (c) 1988,1990,1992,1993,1995,1998,2003,2009,2016,
            Gaussian, Inc.  All Rights Reserved.
  
 This is part of the Gaussian(R) 16 program.  It is based on
 the Gaussian(R) 09 system (copyright 2009, Gaussian, Inc.),
 the Gaussian(R) 03 system (copyright 2003, Gaussian, Inc.),
 the Gaussian(R) 98 system (copyright 1998, Gaussian, Inc.),
 the Gaussian(R) 94 system (copyright 1995, Gaussian, Inc.),
 the Gaussian 92(TM) system (copyright 1992, Gaussian, Inc.),
 the Gaussian 90(TM) system (copyright 1990, Gaussian, Inc.),
 the Gaussian 88(TM) system (copyright 1988, Gaussian, Inc.),
 the Gaussian 86(TM) system (copyright 1986, Carnegie Mellon
 University), and the Gaussian 82(TM) system (copyright 1983,
 Carnegie Mellon University). Gaussian is a federally registered
 trademark of Gaussian, Inc.
  
 This software contains proprietary and confidential information,
 including trade secrets, belonging to Gaussian, Inc.
  
 This software is provided under written license and may be
 used, copied, transmitted, or stored only in accord with that
 written license.
  
 The following legend is applicable only to US Government
 contracts under FAR:
  
                    RESTRICTED RIGHTS LEGEND
  
 Use, reproduction and disclosure by the US Government is
 subject to restrictions as set forth in subparagraphs (a)
 and (c) of the Commercial Computer Software - Restricted
 Rights clause in FAR 52.227-19.
  
 Gaussian, Inc.
 340 Quinnipiac St., Bldg. 40, Wallingford CT 06492
  
  
 ---------------------------------------------------------------
 Warning -- This program may not be used in any manner that
 competes with the business of Gaussian, Inc. or will provide
 assistance to any competitor of Gaussian, Inc.  The licensee
 of this program is prohibited from giving any competitor of
 Gaussian, Inc. access to this program.  By using this program,
 the user acknowledges that Gaussian, Inc. is engaged in the
 business of creating and licensing software in the field of
 computational chemistry and represents and warrants to the
 licensee that it is not a competitor of Gaussian, Inc. and that
 it will not use this program in any manner prohibited above.
 ---------------------------------------------------------------
  

 Cite this work as:
 Gaussian 16, Revision A.03,
 M. J. Frisch, G. W. Trucks, H. B. Schlegel, G. E. Scuseria, 
 M. A. Robb, J. R. Cheeseman, G. Scalmani, V. Barone, 
 G. A. Petersson, H. Nakatsuji, X. Li, M. Caricato, A. V. Marenich, 
 J. Bloino, B. G. Janesko, R. Gomperts, B. Mennucci, H. P. Hratchian, 
 J. V. Ortiz, A. F. Izmaylov, J. L. Sonnenberg, D. Williams-Young, 
 F. Ding, F. Lipparini, F. Egidi, J. Goings, B. Peng, A. Petrone, 
 T. Henderson, D. Ranasinghe, V. G. Zakrzewski, J. Gao, N. Rega, 
 G. Zheng, W. Liang, M. Hada, M. Ehara, K. Toyota, R. Fukuda, 
 J. Hasegawa, M. Ishida, T. Nakajima, Y. Honda, O. Kitao, H. Nakai, 
 T. Vreven, K. Throssell, J. A. Montgomery, Jr., J. E. Peralta, 
 F. Ogliaro, M. J. Bearpark, J. J. Heyd, E. N. Brothers, K. N. Kudin, 
 V. N. Staroverov, T. A. Keith, R. Kobayashi, J. Normand, 
 K. Raghavachari, A. P. Rendell, J. C. Burant, S. S. Iyengar, 
 J. Tomasi, M. Cossi, J. M. Millam, M. Klene, C. Adamo, R. Cammi, 
 J. W. Ochterski, R. L. Martin, K. Morokuma, O. Farkas, 
 J. B. Foresman, and D. J. Fox, Gaussian, Inc., Wallingford CT, 2016.
 
 ******************************************
 Gaussian 16:  EM64L-G16RevA.03 25-Dec-2016
                 5-May-2021 
 ******************************************
 %chk=gaussian_02706_1_1.chk
 %nproc=2
 Will use up to    2 processors via shared memory.
 %mem=4000Mb
 -------------
 #p 6-31g* mp2
 -------------
 1/38=1,172=1/1;
 2/12=2,17=6,18=5,40=1/2;
 3/5=1,6=6,7=1,11=9,25=1,30=1/1,2,3;
 4//1;
 5/5=2,38=5/2;
 8/10=2/1;
 9/16=-3/6;
 6/7=2,8=2,9=2,10=2/1;
 99/5=1,9=1/99;
 Leave Link    1 at Wed May  5 21:27:00 2021, MaxMem=   524288000 cpu:               0.1 elap:               0.1
 (Enter /opt/gaussian/g16_legacy/l101.exe)
 ------------------------------------------------------
 Input file generated by CHIRIPA (05-May-2021 14:51:11)
 ------------------------------------------------------
 Symbolic Z-matrix:
 Charge =  0 Multiplicity = 1
 C                    -0.666    -0.374     0. 
 C                    -1.882     0.553     0. 
 C                    -3.207    -0.21      0. 
 H                    -0.713    -1.03     -0.88 
 H                    -0.713    -1.029     0.881 
 H                    -1.832     1.207    -0.88 
 H                    -1.832     1.207     0.88 
 H                    -3.283    -0.85      0.885 
 H                    -3.283    -0.85     -0.885 
 H                    -4.063     0.472     0. 
 C                     0.666     0.374     0. 
 C                     1.882    -0.553     0. 
 C                     3.207     0.21      0. 
 H                     0.713     1.029    -0.881 
 H                     0.713     1.03      0.88 
 H                     1.832    -1.207    -0.88 
 H                     1.832    -1.207     0.88 
 H                     3.283     0.85      0.885 
 H                     3.283     0.85     -0.885 
 H                     4.063    -0.472     0. 
 C                    -6.59646  -5.27962   2.52194 
 C                    -6.88732  -5.37497   4.02003 
 C                    -6.84412  -6.81206   4.54032 
 H                    -7.32563  -5.89168   1.97363 
 H                    -5.60796  -5.71446   2.31903 
 H                    -7.8744   -4.93883   4.22025 
 H                    -6.15749  -4.76246   4.56482 
 H                    -5.8572   -7.25411   4.36946 
 H                    -7.58386  -7.43148   4.02294 
 H                    -7.05485  -6.85704   5.61337 
 C                    -6.63603  -3.84925   1.98696 
 C                    -6.34517  -3.7539    0.48887 
 C                    -6.38837  -2.31681  -0.03142 
 H                    -7.62453  -3.41441   2.18987 
 H                    -5.90686  -3.23719   2.53526 
 H                    -7.075    -4.36641  -0.05592 
 H                    -5.35809  -4.19004   0.28865 
 H                    -5.64863  -1.69738   0.48596 
 H                    -7.37529  -1.87476   0.13943 
 H                    -6.17764  -2.27183  -1.10447 
 
 ITRead=  0  0  0  0  0  0  0  0  0  0  0  0  0  0  0  0  0  0  0  0
 ITRead=  0  0  0  0  0  0  0  0  0  0  0  0  0  0  0  0  0  0  0  0
 MicOpt= -1 -1 -1 -1 -1 -1 -1 -1 -1 -1 -1 -1 -1 -1 -1 -1 -1 -1 -1 -1
 MicOpt= -1 -1 -1 -1 -1 -1 -1 -1 -1 -1 -1 -1 -1 -1 -1 -1 -1 -1 -1 -1
 NAtoms=     40 NQM=       40 NQMF=       0 NMMI=      0 NMMIF=      0
                NMic=       0 NMicF=      0.
                    Isotopes and Nuclear Properties:
 (Nuclear quadrupole moments (NQMom) in fm**2, nuclear magnetic moments (NMagM)
  in nuclear magnetons)

  Atom         1           2           3           4           5           6           7           8           9          10
 IAtWgt=          12          12          12           1           1           1           1           1           1           1
 AtmWgt=  12.0000000  12.0000000  12.0000000   1.0078250   1.0078250   1.0078250   1.0078250   1.0078250   1.0078250   1.0078250
 NucSpn=           0           0           0           1           1           1           1           1           1           1
 AtZEff=  -0.0000000  -0.0000000  -0.0000000  -0.0000000  -0.0000000  -0.0000000  -0.0000000  -0.0000000  -0.0000000  -0.0000000
 NQMom=    0.0000000   0.0000000   0.0000000   0.0000000   0.0000000   0.0000000   0.0000000   0.0000000   0.0000000   0.0000000
 NMagM=    0.0000000   0.0000000   0.0000000   2.7928460   2.7928460   2.7928460   2.7928460   2.7928460   2.7928460   2.7928460
 AtZNuc=   6.0000000   6.0000000   6.0000000   1.0000000   1.0000000   1.0000000   1.0000000   1.0000000   1.0000000   1.0000000

  Atom        11          12          13          14          15          16          17          18          19          20
 IAtWgt=          12          12          12           1           1           1           1           1           1           1
 AtmWgt=  12.0000000  12.0000000  12.0000000   1.0078250   1.0078250   1.0078250   1.0078250   1.0078250   1.0078250   1.0078250
 NucSpn=           0           0           0           1           1           1           1           1           1           1
 AtZEff=  -0.0000000  -0.0000000  -0.0000000  -0.0000000  -0.0000000  -0.0000000  -0.0000000  -0.0000000  -0.0000000  -0.0000000
 NQMom=    0.0000000   0.0000000   0.0000000   0.0000000   0.0000000   0.0000000   0.0000000   0.0000000   0.0000000   0.0000000
 NMagM=    0.0000000   0.0000000   0.0000000   2.7928460   2.7928460   2.7928460   2.7928460   2.7928460   2.7928460   2.7928460
 AtZNuc=   6.0000000   6.0000000   6.0000000   1.0000000   1.0000000   1.0000000   1.0000000   1.0000000   1.0000000   1.0000000

  Atom        21          22          23          24          25          26          27          28          29          30
 IAtWgt=          12          12          12           1           1           1           1           1           1           1
 AtmWgt=  12.0000000  12.0000000  12.0000000   1.0078250   1.0078250   1.0078250   1.0078250   1.0078250   1.0078250   1.0078250
 NucSpn=           0           0           0           1           1           1           1           1           1           1
 AtZEff=  -0.0000000  -0.0000000  -0.0000000  -0.0000000  -0.0000000  -0.0000000  -0.0000000  -0.0000000  -0.0000000  -0.0000000
 NQMom=    0.0000000   0.0000000   0.0000000   0.0000000   0.0000000   0.0000000   0.0000000   0.0000000   0.0000000   0.0000000
 NMagM=    0.0000000   0.0000000   0.0000000   2.7928460   2.7928460   2.7928460   2.7928460   2.7928460   2.7928460   2.7928460
 AtZNuc=   6.0000000   6.0000000   6.0000000   1.0000000   1.0000000   1.0000000   1.0000000   1.0000000   1.0000000   1.0000000

  Atom        31          32          33          34          35          36          37          38          39          40
 IAtWgt=          12          12          12           1           1           1           1           1           1           1
 AtmWgt=  12.0000000  12.0000000  12.0000000   1.0078250   1.0078250   1.0078250   1.0078250   1.0078250   1.0078250   1.0078250
 NucSpn=           0           0           0           1           1           1           1           1           1           1
 AtZEff=  -0.0000000  -0.0000000  -0.0000000  -0.0000000  -0.0000000  -0.0000000  -0.0000000  -0.0000000  -0.0000000  -0.0000000
 NQMom=    0.0000000   0.0000000   0.0000000   0.0000000   0.0000000   0.0000000   0.0000000   0.0000000   0.0000000   0.0000000
 NMagM=    0.0000000   0.0000000   0.0000000   2.7928460   2.7928460   2.7928460   2.7928460   2.7928460   2.7928460   2.7928460
 AtZNuc=   6.0000000   6.0000000   6.0000000   1.0000000   1.0000000   1.0000000   1.0000000   1.0000000   1.0000000   1.0000000
 Leave Link  101 at Wed May  5 21:27:01 2021, MaxMem=   524288000 cpu:               0.1 elap:               0.1
 (Enter /opt/gaussian/g16_legacy/l202.exe)
                          Input orientation:                          
 ---------------------------------------------------------------------
 Center     Atomic      Atomic             Coordinates (Angstroms)
 Number     Number       Type             X           Y           Z
 ---------------------------------------------------------------------
      1          6           0       -0.666000   -0.374000    0.000000
      2          6           0       -1.882000    0.553000    0.000000
      3          6           0       -3.207000   -0.210000    0.000000
      4          1           0       -0.713000   -1.030000   -0.880000
      5          1           0       -0.713000   -1.029000    0.881000
      6          1           0       -1.832000    1.207000   -0.880000
      7          1           0       -1.832000    1.207000    0.880000
      8          1           0       -3.283000   -0.850000    0.885000
      9          1           0       -3.283000   -0.850000   -0.885000
     10          1           0       -4.063000    0.472000    0.000000
     11          6           0        0.666000    0.374000    0.000000
     12          6           0        1.882000   -0.553000    0.000000
     13          6           0        3.207000    0.210000    0.000000
     14          1           0        0.713000    1.029000   -0.881000
     15          1           0        0.713000    1.030000    0.880000
     16          1           0        1.832000   -1.207000   -0.880000
     17          1           0        1.832000   -1.207000    0.880000
     18          1           0        3.283000    0.850000    0.885000
     19          1           0        3.283000    0.850000   -0.885000
     20          1           0        4.063000   -0.472000    0.000000
     21          6           0       -6.596460   -5.279620    2.521935
     22          6           0       -6.887323   -5.374969    4.020031
     23          6           0       -6.844117   -6.812058    4.540320
     24          1           0       -7.325633   -5.891679    1.973633
     25          1           0       -5.607956   -5.714457    2.319028
     26          1           0       -7.874396   -4.938828    4.220245
     27          1           0       -6.157490   -4.762459    4.564817
     28          1           0       -5.857204   -7.254113    4.369465
     29          1           0       -7.583864   -7.431484    4.022936
     30          1           0       -7.054849   -6.857042    5.613366
     31          6           0       -6.636029   -3.849248    1.986962
     32          6           0       -6.345166   -3.753899    0.488865
     33          6           0       -6.388372   -2.316809   -0.031423
     34          1           0       -7.624533   -3.414410    2.189869
     35          1           0       -5.906856   -3.237189    2.535263
     36          1           0       -7.074999   -4.366409   -0.055920
     37          1           0       -5.358093   -4.190040    0.288651
     38          1           0       -5.648625   -1.697383    0.485961
     39          1           0       -7.375286   -1.874755    0.139431
     40          1           0       -6.177640   -2.271826   -1.104469
 ---------------------------------------------------------------------
                    Distance matrix (angstroms):
                    1          2          3          4          5
     1  C    0.000000
     2  C    1.529047   0.000000
     3  C    2.546287   1.528985   0.000000
     4  H    1.098610   2.155655   2.768905   0.000000
     5  H    1.098815   2.155330   2.768927   1.761000   0.000000
     6  H    2.152561   1.097550   2.161692   2.501266   3.058264
     7  H    2.152561   1.097550   2.161692   3.058420   2.500372
     8  H    2.803300   2.171275   1.094806   3.122903   2.576229
     9  H    2.803300   2.171275   1.094806   2.576301   3.123411
    10  H    3.500761   2.182504   1.094468   3.775302   3.775137
    11  C    1.527654   2.554280   3.916782   2.155750   2.155507
    12  C    2.554280   3.923128   5.100546   2.781358   2.781504
    13  C    3.916782   5.100546   6.427736   4.204569   4.204484
    14  H    2.155507   2.781504   4.204484   2.504587   3.061615
    15  H    2.155750   2.781358   4.204569   3.061809   2.504587
    16  H    2.776381   4.203070   5.211519   2.551148   3.099973
    17  H    2.776381   4.203070   5.211519   3.099347   2.551217
    18  H    4.228002   5.248682   6.635279   4.755801   4.415730
    19  H    4.228002   5.248682   6.635279   4.416157   4.755777
    20  H    4.730015   6.032715   7.274720   4.888347   4.888413
    21  C    8.099112   7.912379   6.599215   8.015456   7.441474
    22  C    8.937293   8.738119   7.508817   9.000629   8.176994
    23  C   10.011605   9.974026   8.799449  10.020113   9.188307
    24  H    8.870779   8.663848   7.289708   8.689422   8.280484
    25  H    7.636838   7.651252   6.437509   7.492564   6.926906
    26  H    9.518881   9.158573   7.871268   9.621696   8.816059
    27  H    8.381682   8.208013   7.089981   8.556854   7.559874
    28  H    9.663166   9.790071   8.702605   9.631163   8.796832
    29  H   10.670002  10.604115   9.353651  10.593703   9.903148
    30  H   10.693788  10.638466   9.513096  10.785976   9.827533
    31  C    7.187949   6.777064   5.380556   7.158904   6.652761
    32  C    6.626887   6.221593   4.758812   6.404273   6.268982
    33  C    6.043264   5.342675   3.815856   5.880970   5.890740
    34  H    7.903215   7.315228   5.880337   7.929615   7.427827
    35  H    6.487833   6.082151   4.783373   6.596351   5.881226
    36  H    7.551008   7.153387   5.678052   7.230890   7.245078
    37  H    6.054851   5.887527   4.533347   5.738335   5.649773
    38  H    5.178229   4.414504   2.900000   5.164460   4.996317
    39  H    6.876498   6.007464   4.490597   6.792563   6.756573
    40  H    5.932939   5.258518   3.780963   5.608459   5.945502
                    6          7          8          9         10
     6  H    0.000000
     7  H    1.760000   0.000000
     8  H    3.074390   2.517275   0.000000
     9  H    2.517275   3.074390   1.770000   0.000000
    10  H    2.508383   2.508383   1.771810   1.771810   0.000000
    11  C    2.776381   2.776381   4.228002   4.228002   4.730015
    12  C    4.203070   4.203070   5.248682   5.248682   6.032715
    13  C    5.211519   5.211519   6.635279   6.635279   7.274720
    14  H    2.551217   3.099973   4.755777   4.415730   4.888413
    15  H    3.099347   2.551148   4.416157   4.755801   4.888347
    16  H    4.387743   4.727567   5.422721   5.127446   6.192291
    17  H    4.727567   4.387743   5.127446   5.422721   6.192291
    18  H    5.422721   5.127446   6.782504   7.009654   7.408767
    19  H    5.127446   5.422721   7.009654   6.782504   7.408767
    20  H    6.192291   6.192291   7.408767   7.408767   8.180649
    21  C    8.737819   8.214151   5.768891   6.496750   6.771980
    22  C    9.637889   8.873466   6.579887   7.584578   7.637048
    23  C   10.899838  10.140244   7.847869   8.812593   9.022562
    24  H    9.418836   9.042526   6.553360   7.066342   7.418653
    25  H    8.508713   8.014687   5.578960   6.271695   6.785059
    26  H   10.014702   9.243321   6.994519   7.991430   7.849476
    27  H    9.164624   8.241491   6.091887   7.298667   7.254240
    28  H   10.740092   9.998453   7.731797   8.674595   9.055618
    29  H   11.478072  10.843680   8.465223   9.268290   9.541780
    30  H   11.596151  10.710354   8.524602   9.619780   9.704427
    31  C    7.540810   7.061848   4.631696   5.337271   5.407558
    32  C    6.844923   6.718048   4.238681   4.438130   4.827576
    33  C    5.822185   5.831676   3.554532   3.538850   3.631225
    34  H    8.020908   7.525066   5.208435   5.905923   5.708259
    35  H    6.929595   6.252612   3.912373   4.927625   4.856485
    36  H    7.696170   7.708948   5.256398   5.237534   5.699602
    37  H    6.551879   6.473876   3.977123   4.103576   4.847185
    38  H    4.986774   4.812207   2.544302   2.862477   2.730675
    39  H    6.423743   6.385427   4.284017   4.341242   4.061765
    40  H    5.571104   5.909732   3.789263   3.232444   3.635950
                   11         12         13         14         15
    11  C    0.000000
    12  C    1.529047   0.000000
    13  C    2.546287   1.528985   0.000000
    14  H    1.098815   2.155330   2.768927   0.000000
    15  H    1.098610   2.155655   2.768905   1.761000   0.000000
    16  H    2.152561   1.097550   2.161692   2.500372   3.058420
    17  H    2.152561   1.097550   2.161692   3.058264   2.501266
    18  H    2.803300   2.171275   1.094806   3.123411   2.576301
    19  H    2.803300   2.171275   1.094806   2.576229   3.122903
    20  H    3.500761   2.182504   1.094468   3.775137   3.775302
    21  C    9.542898  10.029226  11.515377  10.237522   9.794665
    22  C   10.308442  10.784853  12.216705  11.081328  10.423451
    23  C   11.342654  11.659135  13.074737  12.164823  11.489379
    24  H   10.345055  10.824843  12.331345  10.984732  10.664206
    25  H    9.044873   9.387117  10.871087   9.781047   9.354838
    26  H   10.907565  11.499270  12.927422  11.635336  10.978502
    27  H    9.684048  10.158272  11.543681  10.507214   9.712574
    28  H   10.946804  11.130697  12.528567  11.804445  11.134203
    29  H   12.048645  12.373364  13.820964  12.824443  12.260208
    30  H   11.975365  12.293010  13.665962  12.833781  12.039504
    31  C    8.666226   9.347197  10.831008   9.275276   8.890481
    32  C    8.150766   8.841437  10.353519   8.635413   8.535595
    33  C    7.550206   8.456421   9.922546   7.895930   7.903247
    34  H    9.374461  10.166482  11.629875   9.934213   9.538501
    35  H    7.916482   8.619670  10.068418   8.584504   8.048061
    36  H    9.077316   9.735145  11.254606   9.510212   9.521035
    37  H    7.563298   8.107424   9.633509   8.091022   8.028492
    38  H    6.663428   7.632567   9.071734   7.054929   6.932832
    39  H    8.350965   9.352209  10.786585   8.654100   8.625915
    40  H    7.419950   8.314566   9.769892   7.643711   7.894371
                   16         17         18         19         20
    16  H    0.000000
    17  H    1.760000   0.000000
    18  H    3.074390   2.517275   0.000000
    19  H    2.517275   3.074390   1.770000   0.000000
    20  H    2.508383   2.508383   1.771810   1.771810   0.000000
    21  C    9.959836   9.503743  11.741189  12.115411  11.962335
    22  C   10.835537  10.161612  12.329401  12.893605  12.653431
    23  C   11.664971  10.958541  13.214651  13.809407  13.408059
    24  H   10.674815  10.344298  12.616594  12.890505  12.765936
    25  H    9.268435   8.817081  11.144399  11.506824  11.242270
    26  H   11.582451  10.922358  13.004687  13.566928  13.426259
    27  H   10.301421   9.489527  11.582901  12.260630  11.987661
    28  H   11.101726  10.385942  12.702814  13.297721  12.786701
    29  H   12.306156  11.716687  14.018500  14.517560  14.151603
    30  H   12.371858  11.545727  13.734157  14.439473  13.995900
    31  C    9.322471   8.939483  11.031065  11.345406  11.393992
    32  C    8.673323   8.573548  10.679625  10.760343  10.924274
    33  C    8.338242   8.344872  10.217825  10.212380  10.612987
    34  H   10.184438   9.798695  11.783979  12.108439  12.249560
    35  H    8.699171   8.170156  10.192249  10.623407  10.652317
    36  H    9.486601   9.496970  11.635480  11.626970  11.799346
    37  H    7.871576   7.806770  10.021284  10.072137  10.132331
    38  H    7.620110   7.507030   9.296360   9.388430   9.800683
    39  H    9.287586   9.261126  11.026297  11.048656  11.524823
    40  H    8.083228   8.320235  10.159109   9.964822  10.456095
                   21         22         23         24         25
    21  C    0.000000
    22  C    1.529047   0.000000
    23  C    2.546287   1.528984   0.000000
    24  H    1.098610   2.155655   2.768905   0.000000
    25  H    1.098815   2.155329   2.768928   1.761000   0.000000
    26  H    2.152560   1.097551   2.161692   2.501266   3.058264
    27  H    2.152561   1.097550   2.161692   3.058420   2.500371
    28  H    2.803300   2.171274   1.094807   3.122903   2.576229
    29  H    2.803300   2.171274   1.094806   2.576301   3.123411
    30  H    3.500761   2.182504   1.094468   3.775302   3.775137
    31  C    1.527654   2.554279   3.916782   2.155749   2.155506
    32  C    2.554280   3.923128   5.100547   2.781358   2.781504
    33  C    3.916783   5.100546   6.427737   4.204569   4.204483
    34  H    2.155507   2.781504   4.204483   2.504588   3.061614
    35  H    2.155749   2.781358   4.204569   3.061809   2.504587
    36  H    2.776381   4.203069   5.211519   2.551147   3.099972
    37  H    2.776382   4.203070   5.211519   3.099347   2.551217
    38  H    4.228002   5.248682   6.635279   4.755801   4.415730
    39  H    4.228002   5.248682   6.635279   4.416157   4.755776
    40  H    4.730015   6.032715   7.274719   4.888347   4.888413
                   26         27         28         29         30
    26  H    0.000000
    27  H    1.760001   0.000000
    28  H    3.074390   2.517275   0.000000
    29  H    2.517275   3.074390   1.769999   0.000000
    30  H    2.508384   2.508383   1.771809   1.771809   0.000000
    31  C    2.776381   2.776381   4.228001   4.228001   4.730015
    32  C    4.203070   4.203070   5.248682   5.248682   6.032716
    33  C    5.211519   5.211519   6.635279   6.635279   7.274720
    34  H    2.551217   3.099972   4.755776   4.415730   4.888414
    35  H    3.099347   2.551148   4.416157   4.755800   4.888348
    36  H    4.387743   4.727567   5.422720   5.127445   6.192291
    37  H    4.727568   4.387744   5.127446   5.422721   6.192291
    38  H    5.422721   5.127446   6.782504   7.009655   7.408767
    39  H    5.127445   5.422721   7.009654   6.782503   7.408767
    40  H    6.192290   6.192291   7.408766   7.408766   8.180648
                   31         32         33         34         35
    31  C    0.000000
    32  C    1.529048   0.000000
    33  C    2.546288   1.528985   0.000000
    34  H    1.098815   2.155330   2.768928   0.000000
    35  H    1.098610   2.155655   2.768905   1.760999   0.000000
    36  H    2.152561   1.097550   2.161693   2.500372   3.058419
    37  H    2.152561   1.097551   2.161693   3.058265   2.501266
    38  H    2.803300   2.171275   1.094806   3.123411   2.576301
    39  H    2.803301   2.171275   1.094807   2.576229   3.122903
    40  H    3.500761   2.182503   1.094468   3.775137   3.775301
                   36         37         38         39         40
    36  H    0.000000
    37  H    1.760000   0.000000
    38  H    3.074391   2.517276   0.000000
    39  H    2.517275   3.074391   1.770001   0.000000
    40  H    2.508383   2.508383   1.771810   1.771809   0.000000
 Stoichiometry    C12H28
 Framework group  C1[X(C12H28)]
 Deg. of freedom   114
 Full point group                 C1      NOp   1
 Largest Abelian subgroup         C1      NOp   1
 Largest concise Abelian subgroup C1      NOp   1
                         Standard orientation:                         
 ---------------------------------------------------------------------
 Center     Atomic      Atomic             Coordinates (Angstroms)
 Number     Number       Type             X           Y           Z
 ---------------------------------------------------------------------
      1          6           0       -3.444382    0.169687    0.013132
      2          6           0       -2.968396    1.384013   -0.784886
      3          6           0       -1.510433    1.744932   -0.498747
      4          1           0       -3.318855    0.371628    1.085703
      5          1           0       -2.800346   -0.689355   -0.220661
      6          1           0       -3.613994    2.240155   -0.550704
      7          1           0       -3.095250    1.179233   -1.855675
      8          1           0       -0.850100    0.908582   -0.749905
      9          1           0       -1.371792    1.975532    0.562480
     10          1           0       -1.190960    2.615731   -1.079699
     11          6           0       -4.899966   -0.203466   -0.262114
     12          6           0       -5.375953   -1.417793    0.535904
     13          6           0       -6.833916   -1.778711    0.249765
     14          1           0       -5.544003    0.655575   -0.028321
     15          1           0       -5.025494   -0.405407   -1.334685
     16          1           0       -5.249099   -1.213012    1.606693
     17          1           0       -4.730355   -2.273934    0.301722
     18          1           0       -6.972557   -2.009311   -0.811462
     19          1           0       -7.494248   -0.942361    0.500923
     20          1           0       -7.153388   -2.649510    0.830717
     21          6           0        4.614154   -0.544054    0.395467
     22          6           0        5.337537   -1.328720   -0.699522
     23          6           0        6.217834   -2.447528   -0.141726
     24          1           0        5.356693   -0.119207    1.084731
     25          1           0        3.998561   -1.235908    0.986886
     26          1           0        5.950507   -0.635371   -1.289567
     27          1           0        4.593197   -1.751589   -1.386369
     28          1           0        5.616777   -3.161690    0.430379
     29          1           0        6.981798   -2.039131    0.527731
     30          1           0        6.725528   -2.995511   -0.941613
     31          6           0        3.730194    0.577833   -0.146485
     32          6           0        3.006812    1.362500    0.948505
     33          6           0        2.126514    2.481307    0.390707
     34          1           0        4.345787    1.269688   -0.737905
     35          1           0        2.987655    0.152986   -0.835748
     36          1           0        3.751152    1.785368    1.635351
     37          1           0        2.393841    0.669151    1.538550
     38          1           0        1.362550    2.072911   -0.278749
     39          1           0        2.727572    3.195470   -0.181397
     40          1           0        1.618820    3.029290    1.190595
 ---------------------------------------------------------------------
 Rotational constants (GHZ):           1.0543699           0.1433861           0.1304205
 Leave Link  202 at Wed May  5 21:27:01 2021, MaxMem=   524288000 cpu:               0.0 elap:               0.1
 (Enter /opt/gaussian/g16_legacy/l301.exe)
 Standard basis: 6-31G(d) (6D, 7F)
 Ernie: Thresh=  0.10000D-02 Tol=  0.10000D-05 Strict=F.
 There are   236 symmetry adapted cartesian basis functions of A   symmetry.
 There are   236 symmetry adapted basis functions of A   symmetry.
   236 basis functions,   448 primitive gaussians,   236 cartesian basis functions
    50 alpha electrons       50 beta electrons
       nuclear repulsion energy       654.0602542145 Hartrees.
 IExCor=    0 DFT=F Ex=HF Corr=None ExCW=0 ScaHFX=  1.000000
 ScaDFX=  1.000000  1.000000  1.000000  1.000000 ScalE2=  1.000000  1.000000
 IRadAn=      5 IRanWt=     -1 IRanGd=            0 ICorTp=0 IEmpDi=  4
 NAtoms=   40 NActive=   40 NUniq=   40 SFac= 1.00D+00 NAtFMM=   60 NAOKFM=F Big=F
 Integral buffers will be    131072 words long.
 Raffenetti 1 integral format.
 Two-electron integral symmetry is turned on.
 Leave Link  301 at Wed May  5 21:27:01 2021, MaxMem=   524288000 cpu:               0.1 elap:               0.1
 (Enter /opt/gaussian/g16_legacy/l302.exe)
 NPDir=0 NMtPBC=     1 NCelOv=     1 NCel=       1 NClECP=     1 NCelD=      1
         NCelK=      1 NCelE2=     1 NClLst=     1 CellRange=     0.0.
 One-electron integrals computed using PRISM.
 One-electron integral symmetry used in STVInt
 NBasis=   236 RedAO= T EigKep=  3.17D-03  NBF=   236
 NBsUse=   236 1.00D-06 EigRej= -1.00D+00 NBFU=   236
 Leave Link  302 at Wed May  5 21:27:01 2021, MaxMem=   524288000 cpu:               0.5 elap:               0.4
 (Enter /opt/gaussian/g16_legacy/l303.exe)
 DipDrv:  MaxL=1.
 Leave Link  303 at Wed May  5 21:27:02 2021, MaxMem=   524288000 cpu:               0.0 elap:               0.1
 (Enter /opt/gaussian/g16_legacy/l401.exe)
 ExpMin= 1.61D-01 ExpMax= 3.05D+03 ExpMxC= 4.57D+02 IAcc=3 IRadAn=         5 AccDes= 0.00D+00
 Harris functional with IExCor=  205 and IRadAn=       5 diagonalized for initial guess.
 HarFok:  IExCor=  205 AccDes= 0.00D+00 IRadAn=         5 IDoV= 1 UseB2=F ITyADJ=14
 ICtDFT=  3500011 ScaDFX=  1.000000  1.000000  1.000000  1.000000
 FoFCou: FMM=F IPFlag=           0 FMFlag=      100000 FMFlg1=           0
         NFxFlg=           0 DoJE=T BraDBF=F KetDBF=T FulRan=T
         wScrn=  0.000000 ICntrl=       500 IOpCl=  0 I1Cent=   200000004 NGrid=           0
         NMat0=    1 NMatS0=      1 NMatT0=    0 NMatD0=    1 NMtDS0=    0 NMtDT0=    0
 Petite list used in FoFCou.
 Harris En= -472.099707840753    
 JPrj=0 DoOrth=F DoCkMO=F.
 Leave Link  401 at Wed May  5 21:27:06 2021, MaxMem=   524288000 cpu:               8.4 elap:               4.4
 (Enter /opt/gaussian/g16_legacy/l502.exe)
 Keep R1 ints in memory in canonical form, NReq=397720540.
 FoFCou: FMM=F IPFlag=           0 FMFlag=           0 FMFlg1=           0
         NFxFlg=           0 DoJE=F BraDBF=F KetDBF=F FulRan=T
         wScrn=  0.000000 ICntrl=       600 IOpCl=  0 I1Cent=           0 NGrid=           0
         NMat0=    1 NMatS0=  27966 NMatT0=    0 NMatD0=    1 NMtDS0=    0 NMtDT0=    0
 Symmetry not used in FoFCou.
 Two-electron integral symmetry not used.
 Closed shell SCF:
 Using DIIS extrapolation, IDIIS=  1040.
 NGot=   524288000 LenX=   133109463 LenY=   133053326
 Requested convergence on RMS density matrix=1.00D-08 within 128 cycles.
 Requested convergence on MAX density matrix=1.00D-06.
 Requested convergence on             energy=1.00D-06.
 No special actions if energy rises.

 Cycle   1  Pass 1  IDiag  1:
 E= -469.870319028807    
 DIIS: error= 6.08D-02 at cycle   1 NSaved=   1.
 NSaved= 1 IEnMin= 1 EnMin= -469.870319028807     IErMin= 1 ErrMin= 6.08D-02
 ErrMax= 6.08D-02  0.00D+00 EMaxC= 1.00D-01 BMatC= 1.07D+00 BMatP= 1.07D+00
 IDIUse=3 WtCom= 3.92D-01 WtEn= 6.08D-01
 Coeff-Com:  0.100D+01
 Coeff-En:   0.100D+01
 Coeff:      0.100D+01
 Gap=     0.635 Goal=   None    Shift=    0.000
 GapD=    0.635 DampG=2.000 DampE=0.500 DampFc=1.0000 IDamp=-1.
 RMSDP=4.72D-03 MaxDP=1.18D-01              OVMax= 1.33D-01

 Cycle   2  Pass 1  IDiag  1:
 E= -470.595786751401     Delta-E=       -0.725467722593 Rises=F Damp=F
 DIIS: error= 2.24D-02 at cycle   2 NSaved=   2.
 NSaved= 2 IEnMin= 2 EnMin= -470.595786751401     IErMin= 2 ErrMin= 2.24D-02
 ErrMax= 2.24D-02  0.00D+00 EMaxC= 1.00D-01 BMatC= 1.47D-01 BMatP= 1.07D+00
 IDIUse=3 WtCom= 7.76D-01 WtEn= 2.24D-01
 Coeff-Com:  0.219D+00 0.781D+00
 Coeff-En:   0.000D+00 0.100D+01
 Coeff:      0.170D+00 0.830D+00
 Gap=     0.689 Goal=   None    Shift=    0.000
 RMSDP=1.73D-03 MaxDP=3.34D-02 DE=-7.25D-01 OVMax= 4.78D-02

 Cycle   3  Pass 1  IDiag  1:
 E= -470.726986397164     Delta-E=       -0.131199645763 Rises=F Damp=F
 DIIS: error= 4.88D-03 at cycle   3 NSaved=   3.
 NSaved= 3 IEnMin= 3 EnMin= -470.726986397164     IErMin= 3 ErrMin= 4.88D-03
 ErrMax= 4.88D-03  0.00D+00 EMaxC= 1.00D-01 BMatC= 5.19D-03 BMatP= 1.47D-01
 IDIUse=3 WtCom= 9.51D-01 WtEn= 4.88D-02
 Coeff-Com: -0.263D-01 0.111D+00 0.915D+00
 Coeff-En:   0.000D+00 0.000D+00 0.100D+01
 Coeff:     -0.250D-01 0.106D+00 0.919D+00
 Gap=     0.657 Goal=   None    Shift=    0.000
 RMSDP=2.89D-04 MaxDP=6.52D-03 DE=-1.31D-01 OVMax= 9.82D-03

 Cycle   4  Pass 1  IDiag  1:
 E= -470.732852779010     Delta-E=       -0.005866381847 Rises=F Damp=F
 DIIS: error= 5.18D-04 at cycle   4 NSaved=   4.
 NSaved= 4 IEnMin= 4 EnMin= -470.732852779010     IErMin= 4 ErrMin= 5.18D-04
 ErrMax= 5.18D-04  0.00D+00 EMaxC= 1.00D-01 BMatC= 6.60D-05 BMatP= 5.19D-03
 IDIUse=3 WtCom= 9.95D-01 WtEn= 5.18D-03
 Coeff-Com:  0.127D-02-0.233D-01-0.881D-01 0.111D+01
 Coeff-En:   0.000D+00 0.000D+00 0.000D+00 0.100D+01
 Coeff:      0.126D-02-0.232D-01-0.876D-01 0.111D+01
 Gap=     0.659 Goal=   None    Shift=    0.000
 RMSDP=6.12D-05 MaxDP=1.18D-03 DE=-5.87D-03 OVMax= 1.85D-03

 Cycle   5  Pass 1  IDiag  1:
 E= -470.732962070371     Delta-E=       -0.000109291360 Rises=F Damp=F
 DIIS: error= 1.37D-04 at cycle   5 NSaved=   5.
 NSaved= 5 IEnMin= 5 EnMin= -470.732962070371     IErMin= 5 ErrMin= 1.37D-04
 ErrMax= 1.37D-04  0.00D+00 EMaxC= 1.00D-01 BMatC= 6.71D-06 BMatP= 6.60D-05
 IDIUse=3 WtCom= 9.99D-01 WtEn= 1.37D-03
 Coeff-Com:  0.220D-02-0.129D-01-0.831D-01 0.189D+00 0.905D+00
 Coeff-En:   0.000D+00 0.000D+00 0.000D+00 0.000D+00 0.100D+01
 Coeff:      0.219D-02-0.129D-01-0.829D-01 0.189D+00 0.905D+00
 Gap=     0.659 Goal=   None    Shift=    0.000
 RMSDP=1.60D-05 MaxDP=3.76D-04 DE=-1.09D-04 OVMax= 4.95D-04

 Cycle   6  Pass 1  IDiag  1:
 E= -470.732971470997     Delta-E=       -0.000009400627 Rises=F Damp=F
 DIIS: error= 2.64D-05 at cycle   6 NSaved=   6.
 NSaved= 6 IEnMin= 6 EnMin= -470.732971470997     IErMin= 6 ErrMin= 2.64D-05
 ErrMax= 2.64D-05  0.00D+00 EMaxC= 1.00D-01 BMatC= 1.46D-07 BMatP= 6.71D-06
 IDIUse=1 WtCom= 1.00D+00 WtEn= 0.00D+00
 Coeff-Com:  0.141D-03-0.299D-03-0.335D-02-0.320D-01 0.630D-01 0.972D+00
 Coeff:      0.141D-03-0.299D-03-0.335D-02-0.320D-01 0.630D-01 0.972D+00
 Gap=     0.659 Goal=   None    Shift=    0.000
 RMSDP=3.40D-06 MaxDP=7.18D-05 DE=-9.40D-06 OVMax= 1.01D-04

 Cycle   7  Pass 1  IDiag  1:
 E= -470.732971719683     Delta-E=       -0.000000248686 Rises=F Damp=F
 DIIS: error= 4.84D-06 at cycle   7 NSaved=   7.
 NSaved= 7 IEnMin= 7 EnMin= -470.732971719683     IErMin= 7 ErrMin= 4.84D-06
 ErrMax= 4.84D-06  0.00D+00 EMaxC= 1.00D-01 BMatC= 5.57D-09 BMatP= 1.46D-07
 IDIUse=1 WtCom= 1.00D+00 WtEn= 0.00D+00
 Coeff-Com: -0.551D-04 0.362D-03 0.239D-02-0.705D-02-0.248D-01 0.211D-01
 Coeff-Com:  0.101D+01
 Coeff:     -0.551D-04 0.362D-03 0.239D-02-0.705D-02-0.248D-01 0.211D-01
 Coeff:      0.101D+01
 Gap=     0.659 Goal=   None    Shift=    0.000
 RMSDP=7.31D-07 MaxDP=1.44D-05 DE=-2.49D-07 OVMax= 2.29D-05

 Cycle   8  Pass 1  IDiag  1:
 E= -470.732971729458     Delta-E=       -0.000000009775 Rises=F Damp=F
 DIIS: error= 1.94D-06 at cycle   8 NSaved=   8.
 NSaved= 8 IEnMin= 8 EnMin= -470.732971729458     IErMin= 8 ErrMin= 1.94D-06
 ErrMax= 1.94D-06  0.00D+00 EMaxC= 1.00D-01 BMatC= 6.16D-10 BMatP= 5.57D-09
 IDIUse=1 WtCom= 1.00D+00 WtEn= 0.00D+00
 Coeff-Com: -0.163D-04 0.672D-04 0.554D-03 0.132D-02-0.739D-02-0.669D-01
 Coeff-Com:  0.143D+00 0.930D+00
 Coeff:     -0.163D-04 0.672D-04 0.554D-03 0.132D-02-0.739D-02-0.669D-01
 Coeff:      0.143D+00 0.930D+00
 Gap=     0.659 Goal=   None    Shift=    0.000
 RMSDP=2.02D-07 MaxDP=4.06D-06 DE=-9.77D-09 OVMax= 7.33D-06

 Cycle   9  Pass 1  IDiag  1:
 E= -470.732971730460     Delta-E=       -0.000000001002 Rises=F Damp=F
 DIIS: error= 4.18D-07 at cycle   9 NSaved=   9.
 NSaved= 9 IEnMin= 9 EnMin= -470.732971730460     IErMin= 9 ErrMin= 4.18D-07
 ErrMax= 4.18D-07  0.00D+00 EMaxC= 1.00D-01 BMatC= 3.76D-11 BMatP= 6.16D-10
 IDIUse=1 WtCom= 1.00D+00 WtEn= 0.00D+00
 Coeff-Com:  0.530D-05-0.332D-04-0.227D-03 0.448D-03 0.264D-02 0.361D-02
 Coeff-Com: -0.900D-01-0.727D-01 0.116D+01
 Coeff:      0.530D-05-0.332D-04-0.227D-03 0.448D-03 0.264D-02 0.361D-02
 Coeff:     -0.900D-01-0.727D-01 0.116D+01
 Gap=     0.659 Goal=   None    Shift=    0.000
 RMSDP=7.28D-08 MaxDP=1.42D-06 DE=-1.00D-09 OVMax= 2.16D-06

 Cycle  10  Pass 1  IDiag  1:
 E= -470.732971730544     Delta-E=       -0.000000000084 Rises=F Damp=F
 DIIS: error= 7.51D-08 at cycle  10 NSaved=  10.
 NSaved=10 IEnMin=10 EnMin= -470.732971730544     IErMin=10 ErrMin= 7.51D-08
 ErrMax= 7.51D-08  0.00D+00 EMaxC= 1.00D-01 BMatC= 1.39D-12 BMatP= 3.76D-11
 IDIUse=1 WtCom= 1.00D+00 WtEn= 0.00D+00
 Coeff-Com:  0.270D-06-0.132D-06-0.683D-05-0.129D-03 0.142D-03 0.354D-02
 Coeff-Com:  0.146D-02-0.476D-01-0.115D+00 0.116D+01
 Coeff:      0.270D-06-0.132D-06-0.683D-05-0.129D-03 0.142D-03 0.354D-02
 Coeff:      0.146D-02-0.476D-01-0.115D+00 0.116D+01
 Gap=     0.659 Goal=   None    Shift=    0.000
 RMSDP=1.41D-08 MaxDP=3.18D-07 DE=-8.39D-11 OVMax= 4.85D-07

 Cycle  11  Pass 1  IDiag  1:
 E= -470.732971730550     Delta-E=       -0.000000000006 Rises=F Damp=F
 DIIS: error= 8.28D-09 at cycle  11 NSaved=  11.
 NSaved=11 IEnMin=11 EnMin= -470.732971730550     IErMin=11 ErrMin= 8.28D-09
 ErrMax= 8.28D-09  0.00D+00 EMaxC= 1.00D-01 BMatC= 3.40D-14 BMatP= 1.39D-12
 IDIUse=1 WtCom= 1.00D+00 WtEn= 0.00D+00
 Coeff-Com: -0.175D-06 0.880D-06 0.667D-05 0.181D-04-0.970D-04-0.858D-03
 Coeff-Com:  0.181D-02 0.119D-01 0.845D-03-0.271D+00 0.126D+01
 Coeff:     -0.175D-06 0.880D-06 0.667D-05 0.181D-04-0.970D-04-0.858D-03
 Coeff:      0.181D-02 0.119D-01 0.845D-03-0.271D+00 0.126D+01
 Gap=     0.659 Goal=   None    Shift=    0.000
 RMSDP=1.89D-09 MaxDP=3.77D-08 DE=-5.91D-12 OVMax= 5.86D-08

 SCF Done:  E(RHF) =  -470.732971731     A.U. after   11 cycles
            NFock= 11  Conv=0.19D-08     -V/T= 2.0011
 KE= 4.702275180291D+02 PE=-2.401285603449D+03 EE= 8.062648594753D+02
 Leave Link  502 at Wed May  5 21:27:16 2021, MaxMem=   524288000 cpu:              13.9 elap:               9.9
 (Enter /opt/gaussian/g16_legacy/l801.exe)
 ExpMin= 1.61D-01 ExpMax= 3.05D+03 ExpMxC= 4.57D+02 IAcc=3 IRadAn=         5 AccDes= 0.00D+00
 HarFok:  IExCor=  205 AccDes= 0.00D+00 IRadAn=         5 IDoV=-2 UseB2=F ITyADJ=14
 ICtDFT= 12500011 ScaDFX=  1.000000  1.000000  1.000000  1.000000
 Largest valence mixing into a core orbital is  1.98D-04
 Largest core mixing into a valence orbital is  3.30D-05
 Range of M.O.s used for correlation:    13   236
 NBasis=   236 NAE=    50 NBE=    50 NFC=    12 NFV=     0
 NROrb=    224 NOA=    38 NOB=    38 NVA=   186 NVB=   186
 Leave Link  801 at Wed May  5 21:27:18 2021, MaxMem=   524288000 cpu:               1.8 elap:               1.3
 (Enter /opt/gaussian/g16_legacy/l906.exe)
 FulOut=F Deriv=F AODrv=F NAtomX=    40
   MMem=         154  MDisk=          38 MDiskD=          38
  W3Min=     1668048 MinDsk=     1838182 NBas6D=         236
 NBas2D=       28290    NTT=       27966    LW2=     2000000
    MDV=   523973129 MDiskM=       30718 NBas2p=       17018
 Fully direct method using O(OVN) memory.
 IMap=   1   2   3   4   5   6   7   8   9  10  11  12  13  14  15  16  17  18  19  20
 IMap=  21  22  23  24  25  26  27  28  29  30  31  32  33  34  35  36  37  38
 JobTyp=1 Pass  1:  I=   1 to  38 NPSUse=  2 ParTrn=T ParDer=T DoDerP=F.
 Spin components of T(2) and E(2):
     alpha-alpha T2 =       0.6273427457D-01 E2=     -0.1841391326D+00
     alpha-beta  T2 =       0.4041387152D+00 E2=     -0.1214229053D+01
     beta-beta   T2 =       0.6273427457D-01 E2=     -0.1841391326D+00
 The integrals were generated   1 times.
 ANorm=    0.1236772924D+01
 E2 =    -0.1582507318D+01 EUMP2 =    -0.47231547904869D+03
 Leave Link  906 at Wed May  5 21:27:47 2021, MaxMem=   524288000 cpu:              59.0 elap:              29.6
 (Enter /opt/gaussian/g16_legacy/l601.exe)
 Copying SCF densities to generalized density rwf, IOpCl= 0 IROHF=0.

 **********************************************************************

            Population analysis using the SCF density.

 **********************************************************************

 Orbital symmetries:
       Occupied  (A) (A) (A) (A) (A) (A) (A) (A) (A) (A) (A) (A)
                 (A) (A) (A) (A) (A) (A) (A) (A) (A) (A) (A) (A)
                 (A) (A) (A) (A) (A) (A) (A) (A) (A) (A) (A) (A)
                 (A) (A) (A) (A) (A) (A) (A) (A) (A) (A) (A) (A)
                 (A) (A)
       Virtual   (A) (A) (A) (A) (A) (A) (A) (A) (A) (A) (A) (A)
                 (A) (A) (A) (A) (A) (A) (A) (A) (A) (A) (A) (A)
                 (A) (A) (A) (A) (A) (A) (A) (A) (A) (A) (A) (A)
                 (A) (A) (A) (A) (A) (A) (A) (A) (A) (A) (A) (A)
                 (A) (A) (A) (A) (A) (A) (A) (A) (A) (A) (A) (A)
                 (A) (A) (A) (A) (A) (A) (A) (A) (A) (A) (A) (A)
                 (A) (A) (A) (A) (A) (A) (A) (A) (A) (A) (A) (A)
                 (A) (A) (A) (A) (A) (A) (A) (A) (A) (A) (A) (A)
                 (A) (A) (A) (A) (A) (A) (A) (A) (A) (A) (A) (A)
                 (A) (A) (A) (A) (A) (A) (A) (A) (A) (A) (A) (A)
                 (A) (A) (A) (A) (A) (A) (A) (A) (A) (A) (A) (A)
                 (A) (A) (A) (A) (A) (A) (A) (A) (A) (A) (A) (A)
                 (A) (A) (A) (A) (A) (A) (A) (A) (A) (A) (A) (A)
                 (A) (A) (A) (A) (A) (A) (A) (A) (A) (A) (A) (A)
                 (A) (A) (A) (A) (A) (A) (A) (A) (A) (A) (A) (A)
                 (A) (A) (A) (A) (A) (A)
 The electronic state is 1-A.
 Alpha  occ. eigenvalues --  -11.21615 -11.21602 -11.21577 -11.21506 -11.21421
 Alpha  occ. eigenvalues --  -11.21361 -11.21360 -11.21299 -11.21087 -11.21082
 Alpha  occ. eigenvalues --  -11.21053 -11.20867  -1.08446  -1.08374  -1.03557
 Alpha  occ. eigenvalues --   -1.03449  -0.96040  -0.95868  -0.87100  -0.86847
 Alpha  occ. eigenvalues --   -0.79683  -0.79458  -0.78263  -0.78183  -0.65077
 Alpha  occ. eigenvalues --   -0.65006  -0.60959  -0.60855  -0.59368  -0.59277
 Alpha  occ. eigenvalues --   -0.57608  -0.57521  -0.55318  -0.55197  -0.52806
 Alpha  occ. eigenvalues --   -0.52567  -0.52439  -0.52239  -0.49963  -0.49801
 Alpha  occ. eigenvalues --   -0.47954  -0.47803  -0.46657  -0.46535  -0.45819
 Alpha  occ. eigenvalues --   -0.45733  -0.45701  -0.45627  -0.43792  -0.43699
 Alpha virt. eigenvalues --    0.22167   0.22976   0.23664   0.24768   0.26225
 Alpha virt. eigenvalues --    0.26645   0.27181   0.27543   0.27590   0.29189
 Alpha virt. eigenvalues --    0.30156   0.31228   0.31533   0.32103   0.32185
 Alpha virt. eigenvalues --    0.32498   0.33544   0.33755   0.34497   0.34670
 Alpha virt. eigenvalues --    0.34709   0.34815   0.35178   0.35949   0.36336
 Alpha virt. eigenvalues --    0.36422   0.36708   0.37880   0.39564   0.39785
 Alpha virt. eigenvalues --    0.40686   0.41393   0.45132   0.45420   0.45567
 Alpha virt. eigenvalues --    0.47377   0.48037   0.50043   0.68641   0.68995
 Alpha virt. eigenvalues --    0.69635   0.70310   0.71376   0.72289   0.75180
 Alpha virt. eigenvalues --    0.75564   0.76499   0.77051   0.78073   0.78243
 Alpha virt. eigenvalues --    0.80642   0.81237   0.84013   0.84220   0.86868
 Alpha virt. eigenvalues --    0.87509   0.87937   0.90108   0.95874   0.95999
 Alpha virt. eigenvalues --    0.96433   0.97039   0.98473   0.99672   1.01565
 Alpha virt. eigenvalues --    1.02688   1.05409   1.06225   1.07650   1.08651
 Alpha virt. eigenvalues --    1.10569   1.10834   1.11682   1.11858   1.15485
 Alpha virt. eigenvalues --    1.16063   1.16369   1.17009   1.17348   1.17952
 Alpha virt. eigenvalues --    1.18630   1.19104   1.20017   1.20364   1.20604
 Alpha virt. eigenvalues --    1.20814   1.21021   1.21175   1.21451   1.21720
 Alpha virt. eigenvalues --    1.21767   1.21961   1.22564   1.23168   1.23608
 Alpha virt. eigenvalues --    1.24185   1.24758   1.26218   1.26710   1.27254
 Alpha virt. eigenvalues --    1.27541   1.35813   1.40671   1.42131   1.55567
 Alpha virt. eigenvalues --    1.56117   1.65877   1.66475   1.67422   1.67508
 Alpha virt. eigenvalues --    1.71066   1.71436   1.72730   1.72914   1.79393
 Alpha virt. eigenvalues --    1.79736   1.81160   1.81610   1.92697   1.92852
 Alpha virt. eigenvalues --    2.05114   2.05255   2.13116   2.13505   2.14726
 Alpha virt. eigenvalues --    2.15476   2.17804   2.17978   2.22439   2.22595
 Alpha virt. eigenvalues --    2.25499   2.25633   2.25746   2.25927   2.27718
 Alpha virt. eigenvalues --    2.28304   2.32752   2.32835   2.33907   2.34107
 Alpha virt. eigenvalues --    2.36011   2.36285   2.39457   2.40300   2.43057
 Alpha virt. eigenvalues --    2.43298   2.56639   2.56831   2.56923   2.57220
 Alpha virt. eigenvalues --    2.59647   2.59949   2.66742   2.66970   2.67692
 Alpha virt. eigenvalues --    2.67738   2.67978   2.68160   2.76954   2.77081
 Alpha virt. eigenvalues --    2.77596   2.77718   2.79999   2.80486   2.91376
 Alpha virt. eigenvalues --    2.92027   2.94889   2.95366   2.98643   3.00507
 Alpha virt. eigenvalues --    3.13824   3.14723   3.18682   3.19013   4.55308
 Alpha virt. eigenvalues --    4.55648   4.62165   4.63048   4.71889   4.72785
 Alpha virt. eigenvalues --    4.79713   4.80192   4.87732   4.87946   4.99612
 Alpha virt. eigenvalues --    4.99838
          Condensed to atoms (all electrons):
               1          2          3          4          5          6
     1  C    5.084101   0.351864  -0.056982   0.396108   0.395984  -0.043567
     2  C    0.351864   5.062821   0.340071  -0.041839  -0.041792   0.398757
     3  C   -0.056982   0.340071   5.098149  -0.002848  -0.002970  -0.039441
     4  H    0.396108  -0.041839  -0.002848   0.566786  -0.031537  -0.002971
     5  H    0.395984  -0.041792  -0.002970  -0.031537   0.567444   0.004572
     6  H   -0.043567   0.398757  -0.039441  -0.002971   0.004572   0.564059
     7  H   -0.043615   0.398995  -0.039821   0.004570  -0.002984  -0.031594
     8  H   -0.003809  -0.039331   0.391771   0.000161   0.002654   0.004220
     9  H   -0.003816  -0.038286   0.391313   0.002625   0.000156  -0.002905
    10  H    0.004384  -0.035788   0.394656  -0.000058  -0.000059  -0.002551
    11  C    0.355546  -0.051973   0.004033  -0.041645  -0.041707  -0.003223
    12  C   -0.051888   0.003976  -0.000083  -0.003249  -0.003255  -0.000065
    13  C    0.004073  -0.000085   0.000001  -0.000052  -0.000053  -0.000000
    14  H   -0.041720  -0.003263  -0.000056  -0.002805   0.004473   0.002407
    15  H   -0.041651  -0.003248  -0.000052   0.004462  -0.002808   0.000237
    16  H   -0.003196  -0.000064  -0.000001   0.002403   0.000237   0.000017
    17  H   -0.003202  -0.000065  -0.000001   0.000237   0.002411  -0.000003
    18  H   -0.000070  -0.000001  -0.000000  -0.000001   0.000013   0.000000
    19  H   -0.000070  -0.000001  -0.000000   0.000013  -0.000001  -0.000002
    20  H   -0.000087   0.000001  -0.000000   0.000001   0.000001   0.000000
    21  C    0.000000  -0.000000   0.000000   0.000000   0.000000   0.000000
    22  C   -0.000000   0.000000   0.000000  -0.000000   0.000000   0.000000
    23  C    0.000000  -0.000000  -0.000000   0.000000   0.000000   0.000000
    24  H    0.000000  -0.000000  -0.000000  -0.000000  -0.000000  -0.000000
    25  H   -0.000000   0.000000  -0.000000  -0.000000  -0.000000  -0.000000
    26  H    0.000000   0.000000  -0.000000  -0.000000  -0.000000  -0.000000
    27  H    0.000000   0.000000  -0.000000   0.000000  -0.000000  -0.000000
    28  H    0.000000  -0.000000  -0.000000  -0.000000  -0.000000  -0.000000
    29  H    0.000000   0.000000   0.000000   0.000000   0.000000   0.000000
    30  H   -0.000000   0.000000   0.000000  -0.000000  -0.000000   0.000000
    31  C    0.000000   0.000000  -0.000007  -0.000000  -0.000000  -0.000000
    32  C    0.000000  -0.000000   0.000027   0.000000  -0.000000   0.000000
    33  C   -0.000001   0.000027  -0.000759  -0.000000  -0.000000  -0.000001
    34  H   -0.000000   0.000000   0.000000  -0.000000   0.000000   0.000000
    35  H   -0.000000  -0.000000  -0.000004  -0.000000   0.000000   0.000000
    36  H   -0.000000   0.000000  -0.000001  -0.000000  -0.000000  -0.000000
    37  H   -0.000000  -0.000000   0.000021   0.000000   0.000000   0.000000
    38  H   -0.000001   0.000063  -0.001133  -0.000000  -0.000001  -0.000000
    39  H   -0.000000  -0.000000   0.000021   0.000000   0.000000   0.000000
    40  H    0.000000   0.000000   0.000104  -0.000000   0.000000   0.000000
               7          8          9         10         11         12
     1  C   -0.043615  -0.003809  -0.003816   0.004384   0.355546  -0.051888
     2  C    0.398995  -0.039331  -0.038286  -0.035788  -0.051973   0.003976
     3  C   -0.039821   0.391771   0.391313   0.394656   0.004033  -0.000083
     4  H    0.004570   0.000161   0.002625  -0.000058  -0.041645  -0.003249
     5  H   -0.002984   0.002654   0.000156  -0.000059  -0.041707  -0.003255
     6  H   -0.031594   0.004220  -0.002905  -0.002551  -0.003223  -0.000065
     7  H    0.564413  -0.002887   0.004196  -0.002490  -0.003207  -0.000064
     8  H   -0.002887   0.551070  -0.029237  -0.028154  -0.000069  -0.000001
     9  H    0.004196  -0.029237   0.546117  -0.027377  -0.000067  -0.000001
    10  H   -0.002490  -0.028154  -0.027377   0.535853  -0.000086   0.000001
    11  C   -0.003207  -0.000069  -0.000067  -0.000086   5.084064   0.352225
    12  C   -0.000064  -0.000001  -0.000001   0.000001   0.352225   5.060433
    13  C   -0.000000   0.000000  -0.000000  -0.000000  -0.057365   0.340677
    14  H    0.000237  -0.000001   0.000013   0.000001   0.396136  -0.041859
    15  H    0.002402   0.000013  -0.000001   0.000001   0.396119  -0.041817
    16  H   -0.000003   0.000000  -0.000002   0.000000  -0.043638   0.399130
    17  H    0.000017  -0.000002   0.000000   0.000000  -0.043666   0.399098
    18  H   -0.000002   0.000000  -0.000000  -0.000000  -0.003798  -0.038899
    19  H    0.000000  -0.000000   0.000000  -0.000000  -0.003796  -0.038898
    20  H    0.000000  -0.000000  -0.000000   0.000000   0.004401  -0.035841
    21  C    0.000000  -0.000000  -0.000000  -0.000000  -0.000000   0.000000
    22  C   -0.000000  -0.000000   0.000000   0.000000   0.000000  -0.000000
    23  C    0.000000  -0.000000  -0.000000  -0.000000  -0.000000   0.000000
    24  H   -0.000000   0.000000  -0.000000   0.000000   0.000000  -0.000000
    25  H   -0.000000  -0.000000   0.000000   0.000000   0.000000  -0.000000
    26  H    0.000000  -0.000000   0.000000  -0.000000  -0.000000  -0.000000
    27  H    0.000000   0.000000   0.000000   0.000000   0.000000   0.000000
    28  H    0.000000   0.000000   0.000000  -0.000000  -0.000000  -0.000000
    29  H   -0.000000   0.000000  -0.000000  -0.000000  -0.000000   0.000000
    30  H   -0.000000   0.000000   0.000000   0.000000   0.000000  -0.000000
    31  C   -0.000000  -0.000000   0.000000   0.000000   0.000000  -0.000000
    32  C   -0.000000   0.000019  -0.000017   0.000004  -0.000000   0.000000
    33  C    0.000000  -0.000382   0.000257  -0.000000   0.000000  -0.000000
    34  H    0.000000  -0.000000   0.000000   0.000000  -0.000000   0.000000
    35  H   -0.000000   0.000063  -0.000001  -0.000001  -0.000000  -0.000000
    36  H   -0.000000   0.000000  -0.000000  -0.000000   0.000000  -0.000000
    37  H    0.000000   0.000021   0.000020  -0.000000  -0.000000   0.000000
    38  H   -0.000002   0.000467  -0.000451   0.000147   0.000000   0.000000
    39  H    0.000000   0.000007   0.000004   0.000001  -0.000000   0.000000
    40  H    0.000000  -0.000014   0.000192   0.000017   0.000000   0.000000
              13         14         15         16         17         18
     1  C    0.004073  -0.041720  -0.041651  -0.003196  -0.003202  -0.000070
     2  C   -0.000085  -0.003263  -0.003248  -0.000064  -0.000065  -0.000001
     3  C    0.000001  -0.000056  -0.000052  -0.000001  -0.000001  -0.000000
     4  H   -0.000052  -0.002805   0.004462   0.002403   0.000237  -0.000001
     5  H   -0.000053   0.004473  -0.002808   0.000237   0.002411   0.000013
     6  H   -0.000000   0.002407   0.000237   0.000017  -0.000003   0.000000
     7  H   -0.000000   0.000237   0.002402  -0.000003   0.000017  -0.000002
     8  H    0.000000  -0.000001   0.000013   0.000000  -0.000002   0.000000
     9  H   -0.000000   0.000013  -0.000001  -0.000002   0.000000  -0.000000
    10  H   -0.000000   0.000001   0.000001   0.000000   0.000000  -0.000000
    11  C   -0.057365   0.396136   0.396119  -0.043638  -0.043666  -0.003798
    12  C    0.340677  -0.041859  -0.041817   0.399130   0.399098  -0.038899
    13  C    5.097337  -0.002862  -0.002857  -0.039881  -0.039889   0.391277
    14  H   -0.002862   0.566872  -0.031502  -0.002987   0.004572   0.000158
    15  H   -0.002857  -0.031502   0.566721   0.004566  -0.002976   0.002624
    16  H   -0.039881  -0.002987   0.004566   0.564308  -0.031661   0.004220
    17  H   -0.039889   0.004572  -0.002976  -0.031661   0.564470  -0.002892
    18  H    0.391277   0.000158   0.002624   0.004220  -0.002892   0.548809
    19  H    0.391282   0.002625   0.000158  -0.002892   0.004221  -0.029140
    20  H    0.394111  -0.000059  -0.000059  -0.002506  -0.002507  -0.027491
    21  C   -0.000000  -0.000000   0.000000  -0.000000  -0.000000  -0.000000
    22  C   -0.000000   0.000000  -0.000000   0.000000   0.000000   0.000000
    23  C    0.000000  -0.000000   0.000000  -0.000000  -0.000000   0.000000
    24  H    0.000000   0.000000  -0.000000  -0.000000   0.000000   0.000000
    25  H    0.000000  -0.000000  -0.000000   0.000000  -0.000000   0.000000
    26  H    0.000000   0.000000  -0.000000  -0.000000   0.000000   0.000000
    27  H   -0.000000  -0.000000  -0.000000  -0.000000   0.000000  -0.000000
    28  H    0.000000   0.000000  -0.000000  -0.000000   0.000000   0.000000
    29  H    0.000000   0.000000   0.000000   0.000000  -0.000000   0.000000
    30  H    0.000000   0.000000  -0.000000   0.000000   0.000000   0.000000
    31  C    0.000000   0.000000  -0.000000  -0.000000   0.000000  -0.000000
    32  C   -0.000000  -0.000000   0.000000   0.000000  -0.000000   0.000000
    33  C    0.000000   0.000000  -0.000000   0.000000   0.000000   0.000000
    34  H   -0.000000   0.000000   0.000000   0.000000  -0.000000   0.000000
    35  H    0.000000   0.000000   0.000000   0.000000   0.000000   0.000000
    36  H    0.000000   0.000000   0.000000   0.000000   0.000000   0.000000
    37  H   -0.000000   0.000000   0.000000  -0.000000  -0.000000  -0.000000
    38  H   -0.000000  -0.000000   0.000000  -0.000000  -0.000000  -0.000000
    39  H   -0.000000   0.000000  -0.000000  -0.000000  -0.000000  -0.000000
    40  H   -0.000000   0.000000  -0.000000   0.000000  -0.000000  -0.000000
              19         20         21         22         23         24
     1  C   -0.000070  -0.000087   0.000000  -0.000000   0.000000   0.000000
     2  C   -0.000001   0.000001  -0.000000   0.000000  -0.000000  -0.000000
     3  C   -0.000000  -0.000000   0.000000   0.000000  -0.000000  -0.000000
     4  H    0.000013   0.000001   0.000000  -0.000000   0.000000  -0.000000
     5  H   -0.000001   0.000001   0.000000   0.000000   0.000000  -0.000000
     6  H   -0.000002   0.000000   0.000000   0.000000   0.000000  -0.000000
     7  H    0.000000   0.000000   0.000000  -0.000000   0.000000  -0.000000
     8  H   -0.000000  -0.000000  -0.000000  -0.000000  -0.000000   0.000000
     9  H    0.000000  -0.000000  -0.000000   0.000000  -0.000000  -0.000000
    10  H   -0.000000   0.000000  -0.000000   0.000000  -0.000000   0.000000
    11  C   -0.003796   0.004401  -0.000000   0.000000  -0.000000   0.000000
    12  C   -0.038898  -0.035841   0.000000  -0.000000   0.000000  -0.000000
    13  C    0.391282   0.394111  -0.000000  -0.000000   0.000000   0.000000
    14  H    0.002625  -0.000059  -0.000000   0.000000  -0.000000   0.000000
    15  H    0.000158  -0.000059   0.000000  -0.000000   0.000000  -0.000000
    16  H   -0.002892  -0.002506  -0.000000   0.000000  -0.000000  -0.000000
    17  H    0.004221  -0.002507  -0.000000   0.000000  -0.000000   0.000000
    18  H   -0.029140  -0.027491  -0.000000   0.000000   0.000000   0.000000
    19  H    0.548759  -0.027489  -0.000000   0.000000   0.000000   0.000000
    20  H   -0.027489   0.537246   0.000000   0.000000   0.000000   0.000000
    21  C   -0.000000   0.000000   5.084114   0.352208  -0.057358   0.396112
    22  C    0.000000   0.000000   0.352208   5.060601   0.340634  -0.041831
    23  C    0.000000   0.000000  -0.057358   0.340634   5.097425  -0.002861
    24  H    0.000000   0.000000   0.396112  -0.041831  -0.002861   0.566751
    25  H    0.000000  -0.000000   0.396078  -0.041916  -0.002867  -0.031513
    26  H    0.000000   0.000000  -0.043639   0.399105  -0.039898  -0.002976
    27  H    0.000000   0.000000  -0.043644   0.399095  -0.039912   0.004568
    28  H    0.000000   0.000000  -0.003791  -0.038901   0.391262   0.000159
    29  H    0.000000   0.000000  -0.003792  -0.038893   0.391278   0.002624
    30  H    0.000000   0.000000   0.004400  -0.035844   0.394084  -0.000059
    31  C    0.000000   0.000000   0.355551  -0.051928   0.004073  -0.041623
    32  C    0.000000   0.000000  -0.051936   0.003980  -0.000085  -0.003242
    33  C    0.000000  -0.000000   0.004064  -0.000085   0.000001  -0.000053
    34  H   -0.000000   0.000000  -0.041751  -0.003269  -0.000052  -0.002805
    35  H   -0.000000  -0.000000  -0.041737  -0.003251  -0.000053   0.004468
    36  H    0.000000  -0.000000  -0.003226  -0.000064  -0.000000   0.002405
    37  H   -0.000000   0.000000  -0.003207  -0.000065  -0.000000   0.000236
    38  H   -0.000000   0.000000  -0.000065  -0.000001   0.000000  -0.000001
    39  H   -0.000000   0.000000  -0.000068  -0.000001  -0.000000   0.000013
    40  H   -0.000000   0.000000  -0.000088   0.000001  -0.000000   0.000001
              25         26         27         28         29         30
     1  C   -0.000000   0.000000   0.000000   0.000000   0.000000  -0.000000
     2  C    0.000000   0.000000   0.000000  -0.000000   0.000000   0.000000
     3  C   -0.000000  -0.000000  -0.000000  -0.000000   0.000000   0.000000
     4  H   -0.000000  -0.000000   0.000000  -0.000000   0.000000  -0.000000
     5  H   -0.000000  -0.000000  -0.000000  -0.000000   0.000000  -0.000000
     6  H   -0.000000  -0.000000  -0.000000  -0.000000   0.000000   0.000000
     7  H   -0.000000   0.000000   0.000000   0.000000  -0.000000  -0.000000
     8  H   -0.000000  -0.000000   0.000000   0.000000   0.000000   0.000000
     9  H    0.000000   0.000000   0.000000   0.000000  -0.000000   0.000000
    10  H    0.000000  -0.000000   0.000000  -0.000000  -0.000000   0.000000
    11  C    0.000000  -0.000000   0.000000  -0.000000  -0.000000   0.000000
    12  C   -0.000000  -0.000000   0.000000  -0.000000   0.000000  -0.000000
    13  C    0.000000   0.000000  -0.000000   0.000000   0.000000   0.000000
    14  H   -0.000000   0.000000  -0.000000   0.000000   0.000000   0.000000
    15  H   -0.000000  -0.000000  -0.000000  -0.000000   0.000000  -0.000000
    16  H    0.000000  -0.000000  -0.000000  -0.000000   0.000000   0.000000
    17  H   -0.000000   0.000000   0.000000   0.000000  -0.000000   0.000000
    18  H    0.000000   0.000000  -0.000000   0.000000   0.000000   0.000000
    19  H    0.000000   0.000000   0.000000   0.000000   0.000000   0.000000
    20  H   -0.000000   0.000000   0.000000   0.000000   0.000000   0.000000
    21  C    0.396078  -0.043639  -0.043644  -0.003791  -0.003792   0.004400
    22  C   -0.041916   0.399105   0.399095  -0.038901  -0.038893  -0.035844
    23  C   -0.002867  -0.039898  -0.039912   0.391262   0.391278   0.394084
    24  H   -0.031513  -0.002976   0.004568   0.000159   0.002624  -0.000059
    25  H    0.567207   0.004574  -0.002989   0.002627   0.000158  -0.000059
    26  H    0.004574   0.564385  -0.031667   0.004221  -0.002892  -0.002506
    27  H   -0.002989  -0.031667   0.564613  -0.002893   0.004222  -0.002506
    28  H    0.002627   0.004221  -0.002893   0.548929  -0.029145  -0.027510
    29  H    0.000158  -0.002892   0.004222  -0.029145   0.548831  -0.027502
    30  H   -0.000059  -0.002506  -0.002506  -0.027510  -0.027502   0.537461
    31  C   -0.041703  -0.003193  -0.003190  -0.000070  -0.000070  -0.000087
    32  C   -0.003250  -0.000065  -0.000065  -0.000001  -0.000001   0.000001
    33  C   -0.000052  -0.000000  -0.000000  -0.000000  -0.000000  -0.000000
    34  H    0.004474   0.002411   0.000237  -0.000001   0.000013   0.000001
    35  H   -0.002808   0.000237   0.002409   0.000013  -0.000001   0.000001
    36  H    0.000237   0.000017  -0.000003   0.000000  -0.000002   0.000000
    37  H    0.002410  -0.000003   0.000017  -0.000002   0.000000   0.000000
    38  H    0.000013   0.000000  -0.000002   0.000000  -0.000000  -0.000000
    39  H   -0.000001  -0.000002   0.000000  -0.000000   0.000000  -0.000000
    40  H    0.000001   0.000000   0.000000  -0.000000  -0.000000   0.000000
              31         32         33         34         35         36
     1  C    0.000000   0.000000  -0.000001  -0.000000  -0.000000  -0.000000
     2  C    0.000000  -0.000000   0.000027   0.000000  -0.000000   0.000000
     3  C   -0.000007   0.000027  -0.000759   0.000000  -0.000004  -0.000001
     4  H   -0.000000   0.000000  -0.000000  -0.000000  -0.000000  -0.000000
     5  H   -0.000000  -0.000000  -0.000000   0.000000   0.000000  -0.000000
     6  H   -0.000000   0.000000  -0.000001   0.000000   0.000000  -0.000000
     7  H   -0.000000  -0.000000   0.000000   0.000000  -0.000000  -0.000000
     8  H   -0.000000   0.000019  -0.000382  -0.000000   0.000063   0.000000
     9  H    0.000000  -0.000017   0.000257   0.000000  -0.000001  -0.000000
    10  H    0.000000   0.000004  -0.000000   0.000000  -0.000001  -0.000000
    11  C    0.000000  -0.000000   0.000000  -0.000000  -0.000000   0.000000
    12  C   -0.000000   0.000000  -0.000000   0.000000  -0.000000  -0.000000
    13  C    0.000000  -0.000000   0.000000  -0.000000   0.000000   0.000000
    14  H    0.000000  -0.000000   0.000000   0.000000   0.000000   0.000000
    15  H   -0.000000   0.000000  -0.000000   0.000000   0.000000   0.000000
    16  H   -0.000000   0.000000   0.000000   0.000000   0.000000   0.000000
    17  H    0.000000  -0.000000   0.000000  -0.000000   0.000000   0.000000
    18  H   -0.000000   0.000000   0.000000   0.000000   0.000000   0.000000
    19  H    0.000000   0.000000   0.000000  -0.000000  -0.000000   0.000000
    20  H    0.000000   0.000000  -0.000000   0.000000  -0.000000  -0.000000
    21  C    0.355551  -0.051936   0.004064  -0.041751  -0.041737  -0.003226
    22  C   -0.051928   0.003980  -0.000085  -0.003269  -0.003251  -0.000064
    23  C    0.004073  -0.000085   0.000001  -0.000052  -0.000053  -0.000000
    24  H   -0.041623  -0.003242  -0.000053  -0.002805   0.004468   0.002405
    25  H   -0.041703  -0.003250  -0.000052   0.004474  -0.002808   0.000237
    26  H   -0.003193  -0.000065  -0.000000   0.002411   0.000237   0.000017
    27  H   -0.003190  -0.000065  -0.000000   0.000237   0.002409  -0.000003
    28  H   -0.000070  -0.000001  -0.000000  -0.000001   0.000013   0.000000
    29  H   -0.000070  -0.000001  -0.000000   0.000013  -0.000001  -0.000002
    30  H   -0.000087   0.000001  -0.000000   0.000001   0.000001   0.000000
    31  C    5.083885   0.352294  -0.057225   0.396113   0.395964  -0.043630
    32  C    0.352294   5.060975   0.339711  -0.041858  -0.041823   0.398974
    33  C   -0.057225   0.339711   5.105813  -0.002838  -0.002845  -0.039803
    34  H    0.396113  -0.041858  -0.002838   0.567138  -0.031550  -0.002994
    35  H    0.395964  -0.041823  -0.002845  -0.031550   0.567594   0.004580
    36  H   -0.043630   0.398974  -0.039803  -0.002994   0.004580   0.565295
    37  H   -0.043697   0.399056  -0.039892   0.004577  -0.002980  -0.031793
    38  H   -0.003824  -0.038485   0.391886   0.000155   0.002652   0.004176
    39  H   -0.003850  -0.038774   0.389951   0.002627   0.000153  -0.002944
    40  H    0.004407  -0.035938   0.394690  -0.000059  -0.000056  -0.002497
              37         38         39         40
     1  C   -0.000000  -0.000001  -0.000000   0.000000
     2  C   -0.000000   0.000063  -0.000000   0.000000
     3  C    0.000021  -0.001133   0.000021   0.000104
     4  H    0.000000  -0.000000   0.000000  -0.000000
     5  H    0.000000  -0.000001   0.000000   0.000000
     6  H    0.000000  -0.000000   0.000000   0.000000
     7  H    0.000000  -0.000002   0.000000   0.000000
     8  H    0.000021   0.000467   0.000007  -0.000014
     9  H    0.000020  -0.000451   0.000004   0.000192
    10  H   -0.000000   0.000147   0.000001   0.000017
    11  C   -0.000000   0.000000  -0.000000   0.000000
    12  C    0.000000   0.000000   0.000000   0.000000
    13  C   -0.000000  -0.000000  -0.000000  -0.000000
    14  H    0.000000  -0.000000   0.000000   0.000000
    15  H    0.000000   0.000000  -0.000000  -0.000000
    16  H   -0.000000  -0.000000  -0.000000   0.000000
    17  H   -0.000000  -0.000000  -0.000000  -0.000000
    18  H   -0.000000  -0.000000  -0.000000  -0.000000
    19  H   -0.000000  -0.000000  -0.000000  -0.000000
    20  H    0.000000   0.000000   0.000000   0.000000
    21  C   -0.003207  -0.000065  -0.000068  -0.000088
    22  C   -0.000065  -0.000001  -0.000001   0.000001
    23  C   -0.000000   0.000000  -0.000000  -0.000000
    24  H    0.000236  -0.000001   0.000013   0.000001
    25  H    0.002410   0.000013  -0.000001   0.000001
    26  H   -0.000003   0.000000  -0.000002   0.000000
    27  H    0.000017  -0.000002   0.000000   0.000000
    28  H   -0.000002   0.000000  -0.000000  -0.000000
    29  H    0.000000  -0.000000   0.000000  -0.000000
    30  H    0.000000  -0.000000  -0.000000   0.000000
    31  C   -0.043697  -0.003824  -0.003850   0.004407
    32  C    0.399056  -0.038485  -0.038774  -0.035938
    33  C   -0.039892   0.391886   0.389951   0.394690
    34  H    0.004577   0.000155   0.002627  -0.000059
    35  H   -0.002980   0.002652   0.000153  -0.000056
    36  H   -0.031793   0.004176  -0.002944  -0.002497
    37  H    0.564995  -0.002969   0.004247  -0.002514
    38  H   -0.002969   0.537017  -0.028750  -0.027903
    39  H    0.004247  -0.028750   0.551481  -0.027653
    40  H   -0.002514  -0.027903  -0.027653   0.538305
 Mulliken charges:
               1
     1  C   -0.298389
     2  C   -0.300839
     3  C   -0.476010
     4  H    0.149640
     5  H    0.149223
     6  H    0.152055
     7  H    0.151839
     8  H    0.153420
     9  H    0.157268
    10  H    0.161499
    11  C   -0.298284
    12  C   -0.299622
    13  C   -0.475712
    14  H    0.149621
    15  H    0.149668
    16  H    0.151949
    17  H    0.151838
    18  H    0.155193
    19  H    0.155230
    20  H    0.160277
    21  C   -0.298223
    22  C   -0.299578
    23  C   -0.475668
    24  H    0.149626
    25  H    0.149377
    26  H    0.151892
    27  H    0.151710
    28  H    0.155104
    29  H    0.155171
    30  H    0.160127
    31  C   -0.298192
    32  C   -0.299500
    33  C   -0.482464
    34  H    0.149432
    35  H    0.148976
    36  H    0.151272
    37  H    0.151522
    38  H    0.167013
    39  H    0.153536
    40  H    0.159004
 Sum of Mulliken charges =  -0.00000
 Mulliken charges with hydrogens summed into heavy atoms:
               1
     1  C    0.000474
     2  C    0.003055
     3  C   -0.003823
    11  C    0.001005
    12  C    0.004164
    13  C   -0.005013
    21  C    0.000779
    22  C    0.004024
    23  C   -0.005266
    31  C    0.000217
    32  C    0.003294
    33  C   -0.002911
 Electronic spatial extent (au):  <R**2>=           8492.8855
 Charge=             -0.0000 electrons
 Dipole moment (field-independent basis, Debye):
    X=             -0.0429    Y=              0.0134    Z=             -0.0094  Tot=              0.0459
 Quadrupole moment (field-independent basis, Debye-Ang):
   XX=            -85.7931   YY=            -84.8764   ZZ=            -84.3028
   XY=              0.4341   XZ=             -0.5016   YZ=              0.6596
 Traceless Quadrupole moment (field-independent basis, Debye-Ang):
   XX=             -0.8024   YY=              0.1144   ZZ=              0.6879
   XY=              0.4341   XZ=             -0.5016   YZ=              0.6596
 Octapole moment (field-independent basis, Debye-Ang**2):
  XXX=             13.8270  YYY=             -0.0991  ZZZ=             -0.2697  XYY=             -2.5506
  XXY=             14.0924  XXZ=              1.9529  XZZ=             -2.7210  YZZ=             -0.0681
  YYZ=             -0.1636  XYZ=             -0.6927
 Hexadecapole moment (field-independent basis, Debye-Ang**3):
 XXXX=         -10493.0036 YYYY=          -1375.4819 ZZZZ=           -312.6340 XXXY=             18.4351
 XXXZ=            -29.6891 YYYX=             11.4644 YYYZ=             -0.2773 ZZZX=              0.1611
 ZZZY=              3.5830 XXYY=          -1970.2871 XXZZ=          -1769.0197 YYZZ=           -276.0229
 XXYZ=             15.9036 YYXZ=             -8.8466 ZZXY=              2.8890
 N-N= 6.540602542145D+02 E-N=-2.401285603572D+03  KE= 4.702275180291D+02
 Leave Link  601 at Wed May  5 21:27:48 2021, MaxMem=   524288000 cpu:               0.4 elap:               0.3
 (Enter /opt/gaussian/g16_legacy/l9999.exe)
 1\1\GINC-TRUENO93\SP\RMP2-FC\6-31G(d)\C12H28\JRAMOS\05-May-2021\0\\#p 
 6-31g* mp2\\Input file generated by CHIRIPA (05-May-2021 14:51:11)\\0,
 1\C,0,-0.666,-0.374,0.\C,0,-1.882,0.553,0.\C,0,-3.207,-0.21,0.\H,0,-0.
 713,-1.03,-0.88\H,0,-0.713,-1.029,0.881\H,0,-1.832,1.207,-0.88\H,0,-1.
 832,1.207,0.88\H,0,-3.283,-0.85,0.885\H,0,-3.283,-0.85,-0.885\H,0,-4.0
 63,0.472,0.\C,0,0.666,0.374,0.\C,0,1.882,-0.553,0.\C,0,3.207,0.21,0.\H
 ,0,0.713,1.029,-0.881\H,0,0.713,1.03,0.88\H,0,1.832,-1.207,-0.88\H,0,1
 .832,-1.207,0.88\H,0,3.283,0.85,0.885\H,0,3.283,0.85,-0.885\H,0,4.063,
 -0.472,0.\C,0,-6.59646,-5.27962,2.521935\C,0,-6.887323,-5.374969,4.020
 031\C,0,-6.844117,-6.812058,4.54032\H,0,-7.325633,-5.891679,1.973633\H
 ,0,-5.607956,-5.714457,2.319028\H,0,-7.874396,-4.938828,4.220245\H,0,-
 6.15749,-4.762459,4.564817\H,0,-5.857204,-7.254113,4.369465\H,0,-7.583
 864,-7.431484,4.022936\H,0,-7.054849,-6.857042,5.613366\C,0,-6.636029,
 -3.849248,1.986962\C,0,-6.345166,-3.753899,0.488865\C,0,-6.388372,-2.3
 16809,-0.031423\H,0,-7.624533,-3.41441,2.189869\H,0,-5.906856,-3.23718
 9,2.535263\H,0,-7.074999,-4.366409,-0.05592\H,0,-5.358093,-4.19004,0.2
 88651\H,0,-5.648625,-1.697383,0.485961\H,0,-7.375286,-1.874755,0.13943
 1\H,0,-6.17764,-2.271826,-1.104469\\Version=EM64L-G16RevA.03\State=1-A
 \HF=-470.7329717\MP2=-472.315479\RMSD=1.892e-09\PG=C01 [X(C12H28)]\\@


 WE MIGHT AS WELL ATTEMPT TO INTRODUCE A NEW PLANET 
 INTO THE SOLAR SYSTEM, OR TO ANNIHILATE ONE ALREADYIN EXISTENCE, 
 AS TO CREATE OR DESTROY A PARTICLE OF HYDROGEN.
 ALL THE CHANGES WE CAN PRODUCE CONSIST IN SEPARATING PARTICLES
 THAT ARE IN A STATE OF ... COMBINATION, AND JOINING 
 THOSE THAT WERE PREVIOUSLY AT A DISTANCE.

                                    -- JOHN DALTON, 1810
 Job cpu time:       0 days  0 hours  1 minutes 24.5 seconds.
 Elapsed time:       0 days  0 hours  0 minutes 46.5 seconds.
 File lengths (MBytes):  RWF=     26 Int=      0 D2E=      0 Chk=      5 Scr=      1
 Normal termination of Gaussian 16 at Wed May  5 21:27:48 2021.
