 Entering Gaussian System, Link 0=/opt/gaussian/g16_legacy/g16
 Input=gaussian_00143_2_2.com
 Output=gaussian_00143_2_2.log
 Initial command:
 /opt/gaussian/g16_legacy/l1.exe "/scratch-local/jramos/2587286/Gau-30833.inp" -scrdir="/scratch-local/jramos/2587286/"
 Entering Link 1 = /opt/gaussian/g16_legacy/l1.exe PID=     30835.
  
 Copyright (c) 1988,1990,1992,1993,1995,1998,2003,2009,2016,
            Gaussian, Inc.  All Rights Reserved.
  
 This is part of the Gaussian(R) 16 program.  It is based on
 the Gaussian(R) 09 system (copyright 2009, Gaussian, Inc.),
 the Gaussian(R) 03 system (copyright 2003, Gaussian, Inc.),
 the Gaussian(R) 98 system (copyright 1998, Gaussian, Inc.),
 the Gaussian(R) 94 system (copyright 1995, Gaussian, Inc.),
 the Gaussian 92(TM) system (copyright 1992, Gaussian, Inc.),
 the Gaussian 90(TM) system (copyright 1990, Gaussian, Inc.),
 the Gaussian 88(TM) system (copyright 1988, Gaussian, Inc.),
 the Gaussian 86(TM) system (copyright 1986, Carnegie Mellon
 University), and the Gaussian 82(TM) system (copyright 1983,
 Carnegie Mellon University). Gaussian is a federally registered
 trademark of Gaussian, Inc.
  
 This software contains proprietary and confidential information,
 including trade secrets, belonging to Gaussian, Inc.
  
 This software is provided under written license and may be
 used, copied, transmitted, or stored only in accord with that
 written license.
  
 The following legend is applicable only to US Government
 contracts under FAR:
  
                    RESTRICTED RIGHTS LEGEND
  
 Use, reproduction and disclosure by the US Government is
 subject to restrictions as set forth in subparagraphs (a)
 and (c) of the Commercial Computer Software - Restricted
 Rights clause in FAR 52.227-19.
  
 Gaussian, Inc.
 340 Quinnipiac St., Bldg. 40, Wallingford CT 06492
  
  
 ---------------------------------------------------------------
 Warning -- This program may not be used in any manner that
 competes with the business of Gaussian, Inc. or will provide
 assistance to any competitor of Gaussian, Inc.  The licensee
 of this program is prohibited from giving any competitor of
 Gaussian, Inc. access to this program.  By using this program,
 the user acknowledges that Gaussian, Inc. is engaged in the
 business of creating and licensing software in the field of
 computational chemistry and represents and warrants to the
 licensee that it is not a competitor of Gaussian, Inc. and that
 it will not use this program in any manner prohibited above.
 ---------------------------------------------------------------
  

 Cite this work as:
 Gaussian 16, Revision A.03,
 M. J. Frisch, G. W. Trucks, H. B. Schlegel, G. E. Scuseria, 
 M. A. Robb, J. R. Cheeseman, G. Scalmani, V. Barone, 
 G. A. Petersson, H. Nakatsuji, X. Li, M. Caricato, A. V. Marenich, 
 J. Bloino, B. G. Janesko, R. Gomperts, B. Mennucci, H. P. Hratchian, 
 J. V. Ortiz, A. F. Izmaylov, J. L. Sonnenberg, D. Williams-Young, 
 F. Ding, F. Lipparini, F. Egidi, J. Goings, B. Peng, A. Petrone, 
 T. Henderson, D. Ranasinghe, V. G. Zakrzewski, J. Gao, N. Rega, 
 G. Zheng, W. Liang, M. Hada, M. Ehara, K. Toyota, R. Fukuda, 
 J. Hasegawa, M. Ishida, T. Nakajima, Y. Honda, O. Kitao, H. Nakai, 
 T. Vreven, K. Throssell, J. A. Montgomery, Jr., J. E. Peralta, 
 F. Ogliaro, M. J. Bearpark, J. J. Heyd, E. N. Brothers, K. N. Kudin, 
 V. N. Staroverov, T. A. Keith, R. Kobayashi, J. Normand, 
 K. Raghavachari, A. P. Rendell, J. C. Burant, S. S. Iyengar, 
 J. Tomasi, M. Cossi, J. M. Millam, M. Klene, C. Adamo, R. Cammi, 
 J. W. Ochterski, R. L. Martin, K. Morokuma, O. Farkas, 
 J. B. Foresman, and D. J. Fox, Gaussian, Inc., Wallingford CT, 2016.
 
 ******************************************
 Gaussian 16:  EM64L-G16RevA.03 25-Dec-2016
                 5-May-2021 
 ******************************************
 %chk=gaussian_00143_2_2.chk
 %nproc=2
 Will use up to    2 processors via shared memory.
 %mem=4000Mb
 -------------
 #p 6-31g* mp2
 -------------
 1/38=1,172=1/1;
 2/12=2,17=6,18=5,40=1/2;
 3/5=1,6=6,7=1,11=9,25=1,30=1/1,2,3;
 4//1;
 5/5=2,38=5/2;
 8/10=2/1;
 9/16=-3/6;
 6/7=2,8=2,9=2,10=2/1;
 99/5=1,9=1/99;
 Leave Link    1 at Wed May  5 20:50:54 2021, MaxMem=   524288000 cpu:               0.1 elap:               0.1
 (Enter /opt/gaussian/g16_legacy/l101.exe)
 ------------------------------------------------------
 Input file generated by CHIRIPA (05-May-2021 14:57:21)
 ------------------------------------------------------
 Symbolic Z-matrix:
 Charge =  0 Multiplicity = 1
 C                     1.91414   0.        0. 
 C                     1.21414   1.211     0. 
 C                    -0.18386   1.223     0. 
 C                    -0.85286   0.        0. 
 C                    -0.18386  -1.223     0. 
 C                     1.21414  -1.211     0. 
 H                     3.00014   0.        0. 
 H                     1.75514   2.153     0. 
 H                    -0.75086   2.146     0. 
 H                    -0.75086  -2.146     0. 
 H                     1.75514  -2.153     0. 
 N                    -2.33286   0.        0. 
 O                    -2.89886  -1.091     0. 
 O                    -2.89886   1.091     0. 
 C                     2.7404    4.94449   3.1351 
 C                     1.48517   4.71942   2.56042 
 C                     0.39033   5.51444   2.91228 
 C                     0.58738   6.53034   3.84632 
 C                     1.82553   6.77938   4.43644 
 C                     2.90628   5.97194   4.06963 
 H                     3.58543   4.32207   2.85596 
 H                     1.35341   3.9222    1.83438 
 H                    -0.59243   5.36209   2.48287 
 H                     1.92591   7.58167   5.15733 
 H                     3.87996   6.14902   4.51756 
 N                    -0.56423   7.37857   4.22673 
 O                    -0.36449   8.26716   5.05204 
 O                    -1.64478   7.13875   3.69238 
 
 ITRead=  0  0  0  0  0  0  0  0  0  0  0  0  0  0  0  0  0  0  0  0
 ITRead=  0  0  0  0  0  0  0  0
 MicOpt= -1 -1 -1 -1 -1 -1 -1 -1 -1 -1 -1 -1 -1 -1 -1 -1 -1 -1 -1 -1
 MicOpt= -1 -1 -1 -1 -1 -1 -1 -1
 NAtoms=     28 NQM=       28 NQMF=       0 NMMI=      0 NMMIF=      0
                NMic=       0 NMicF=      0.
                    Isotopes and Nuclear Properties:
 (Nuclear quadrupole moments (NQMom) in fm**2, nuclear magnetic moments (NMagM)
  in nuclear magnetons)

  Atom         1           2           3           4           5           6           7           8           9          10
 IAtWgt=          12          12          12          12          12          12           1           1           1           1
 AtmWgt=  12.0000000  12.0000000  12.0000000  12.0000000  12.0000000  12.0000000   1.0078250   1.0078250   1.0078250   1.0078250
 NucSpn=           0           0           0           0           0           0           1           1           1           1
 AtZEff=  -0.0000000  -0.0000000  -0.0000000  -0.0000000  -0.0000000  -0.0000000  -0.0000000  -0.0000000  -0.0000000  -0.0000000
 NQMom=    0.0000000   0.0000000   0.0000000   0.0000000   0.0000000   0.0000000   0.0000000   0.0000000   0.0000000   0.0000000
 NMagM=    0.0000000   0.0000000   0.0000000   0.0000000   0.0000000   0.0000000   2.7928460   2.7928460   2.7928460   2.7928460
 AtZNuc=   6.0000000   6.0000000   6.0000000   6.0000000   6.0000000   6.0000000   1.0000000   1.0000000   1.0000000   1.0000000

  Atom        11          12          13          14          15          16          17          18          19          20
 IAtWgt=           1          14          16          16          12          12          12          12          12          12
 AtmWgt=   1.0078250  14.0030740  15.9949146  15.9949146  12.0000000  12.0000000  12.0000000  12.0000000  12.0000000  12.0000000
 NucSpn=           1           2           0           0           0           0           0           0           0           0
 AtZEff=  -0.0000000  -0.0000000  -0.0000000  -0.0000000  -0.0000000  -0.0000000  -0.0000000  -0.0000000  -0.0000000  -0.0000000
 NQMom=    0.0000000   2.0440000   0.0000000   0.0000000   0.0000000   0.0000000   0.0000000   0.0000000   0.0000000   0.0000000
 NMagM=    2.7928460   0.4037610   0.0000000   0.0000000   0.0000000   0.0000000   0.0000000   0.0000000   0.0000000   0.0000000
 AtZNuc=   1.0000000   7.0000000   8.0000000   8.0000000   6.0000000   6.0000000   6.0000000   6.0000000   6.0000000   6.0000000

  Atom        21          22          23          24          25          26          27          28
 IAtWgt=           1           1           1           1           1          14          16          16
 AtmWgt=   1.0078250   1.0078250   1.0078250   1.0078250   1.0078250  14.0030740  15.9949146  15.9949146
 NucSpn=           1           1           1           1           1           2           0           0
 AtZEff=  -0.0000000  -0.0000000  -0.0000000  -0.0000000  -0.0000000  -0.0000000  -0.0000000  -0.0000000
 NQMom=    0.0000000   0.0000000   0.0000000   0.0000000   0.0000000   2.0440000   0.0000000   0.0000000
 NMagM=    2.7928460   2.7928460   2.7928460   2.7928460   2.7928460   0.4037610   0.0000000   0.0000000
 AtZNuc=   1.0000000   1.0000000   1.0000000   1.0000000   1.0000000   7.0000000   8.0000000   8.0000000
 Leave Link  101 at Wed May  5 20:50:55 2021, MaxMem=   524288000 cpu:               0.3 elap:               0.3
 (Enter /opt/gaussian/g16_legacy/l202.exe)
                          Input orientation:                          
 ---------------------------------------------------------------------
 Center     Atomic      Atomic             Coordinates (Angstroms)
 Number     Number       Type             X           Y           Z
 ---------------------------------------------------------------------
      1          6           0        1.914143    0.000000    0.000000
      2          6           0        1.214143    1.211000    0.000000
      3          6           0       -0.183857    1.223000    0.000000
      4          6           0       -0.852857    0.000000    0.000000
      5          6           0       -0.183857   -1.223000    0.000000
      6          6           0        1.214143   -1.211000    0.000000
      7          1           0        3.000143    0.000000    0.000000
      8          1           0        1.755143    2.153000    0.000000
      9          1           0       -0.750857    2.146000    0.000000
     10          1           0       -0.750857   -2.146000    0.000000
     11          1           0        1.755143   -2.153000    0.000000
     12          7           0       -2.332857    0.000000    0.000000
     13          8           0       -2.898857   -1.091000    0.000000
     14          8           0       -2.898857    1.091000    0.000000
     15          6           0        2.740404    4.944485    3.135097
     16          6           0        1.485172    4.719415    2.560417
     17          6           0        0.390334    5.514444    2.912276
     18          6           0        0.587375    6.530335    3.846316
     19          6           0        1.825526    6.779378    4.436442
     20          6           0        2.906282    5.971937    4.069628
     21          1           0        3.585431    4.322066    2.855955
     22          1           0        1.353410    3.922202    1.834376
     23          1           0       -0.592426    5.362085    2.482871
     24          1           0        1.925909    7.581666    5.157327
     25          1           0        3.879959    6.149023    4.517556
     26          7           0       -0.564228    7.378567    4.226730
     27          8           0       -0.364492    8.267163    5.052043
     28          8           0       -1.644783    7.138755    3.692382
 ---------------------------------------------------------------------
                    Distance matrix (angstroms):
                    1          2          3          4          5
     1  C    0.000000
     2  C    1.398757   0.000000
     3  C    2.428443   1.398052   0.000000
     4  C    2.767000   2.395623   1.394019   0.000000
     5  C    2.428443   2.806913   2.446000   1.394019   0.000000
     6  C    1.398757   2.422000   2.806913   2.395623   1.398052
     7  H    1.086000   2.157850   3.410804   3.853000   3.410804
     8  H    2.158863   1.086299   2.150493   3.381874   3.893212
     9  H    3.421628   2.176109   1.083244   2.148423   3.416380
    10  H    3.421628   3.889817   3.416380   2.148423   1.083244
    11  H    2.158863   3.407224   3.893212   3.381874   2.150493
    12  N    4.247000   3.748030   2.472636   1.480000   2.472636
    13  O    4.935104   4.713382   3.567327   2.318706   2.718207
    14  O    4.935104   4.114750   2.718207   2.318706   3.567327
    15  C    5.912654   5.108543   5.677111   6.869373   7.511192
    16  C    5.386337   4.351801   4.643954   5.856193   6.682342
    17  C    6.419691   5.261145   5.218001   6.358928   7.362350
    18  C    7.694136   6.594112   6.599754   7.714512   8.689255
    19  C    8.102459   7.145813   7.388706   8.533213   9.367908
    20  C    7.294535   6.487814   6.975904   8.145982   8.824848
    21  H    5.443339   4.843368   5.654045   6.821667   7.287782
    22  H    4.366122   3.276423   3.607467   4.859652   5.674613
    23  H    6.418683   5.163317   4.843924   5.914764   7.049462
    24  H    9.169505   8.227394   8.454689   9.581295  10.419754
    25  H    7.879291   7.204093   7.822315   8.978772   9.553514
    26  N    8.857247   7.685488   7.476693   8.508337   9.591501
    27  O    9.952954   8.820695   8.670409   9.700908  10.752626
    28  O    8.789850   7.546219   7.124896   8.076054   9.256724
                    6          7          8          9         10
     6  C    0.000000
     7  H    2.157850   0.000000
     8  H    3.407224   2.487053   0.000000
     9  H    3.889817   4.321495   2.506010   0.000000
    10  H    2.176109   4.321495   4.976087   4.292000   0.000000
    11  H    1.086299   2.487053   4.306000   4.976087   2.506010
    12  N    3.748030   5.333000   4.620298   2.666091   2.666091
    13  O    4.114750   5.999040   5.673028   3.884852   2.393100
    14  O    4.713382   5.999040   4.773632   2.393100   3.884852
    15  C    7.074482   5.860395   4.311840   5.463447   8.502512
    16  C    6.465216   5.578866   3.635259   4.263570   7.660906
    17  C    7.375067   6.760292   4.652243   4.596747   8.274423
    18  C    8.666906   7.953670   5.942970   5.983929   9.584561
    19  C    9.159801   8.186679   6.410175   6.912884  10.294763
    20  C    8.427324   7.227359   5.698357   6.676401   9.789660
    21  H    6.662905   5.213377   4.026323   5.629843   8.294320
    22  H    5.452898   4.632530   2.580000   3.308741   6.679517
    23  H    7.254915   6.915429   4.687639   4.066073   7.909557
    24  H   10.218396   9.232208   7.489833   7.956731  11.330957
    25  H    9.037966   7.680682   6.394635   7.607691  10.519514
    26  N    9.736966   9.220262   7.109942   6.729029  10.421970
    27  O   10.855911  10.256212   8.209688   7.946134  11.580431
    28  O    9.566899   9.282825   7.074669   6.273786  10.031922
                   11         12         13         14         15
    11  H    0.000000
    12  N    4.620298   0.000000
    13  O    4.773632   1.229080   0.000000
    14  O    5.673028   1.229080   2.182000   0.000000
    15  C    7.821372   7.746918   8.834997   7.515281   0.000000
    16  C    7.338849   6.588320   7.715981   6.240260   1.398757
    17  C    8.314671   6.804867   7.932970   6.234339   2.428442
    18  C    9.568602   8.122018   9.221318   7.518931   2.767000
    19  C    9.973683   9.106818  10.195326   8.623193   2.428442
    20  C    9.159781   8.926056  10.007327   8.607268   1.398757
    21  H    7.309782   7.865295   8.916488   7.787314   1.086000
    22  H    6.358805   5.686578   6.824874   5.427929   2.158863
    23  H    8.255436   6.160008   7.288798   5.452196   3.421629
    24  H   11.017754  10.110231  11.184432   9.591931   3.421628
    25  H    9.687453   9.839608  10.898559   9.588757   2.158863
    26  N   10.681549   8.685421   9.749323   7.927751   4.247000
    27  O   11.772671   9.886535  10.932582   9.134739   4.935104
    28  O   10.560771   8.066533   9.106879   7.195952   4.935104
                   16         17         18         19         20
    16  C    0.000000
    17  C    1.398051   0.000000
    18  C    2.395622   1.394020   0.000000
    19  C    2.806913   2.446000   1.394019   0.000000
    20  C    2.422000   2.806913   2.395622   1.398051   0.000000
    21  H    2.157850   3.410804   3.853000   3.410804   2.157851
    22  H    1.086299   2.150493   3.381874   3.893211   3.407224
    23  H    2.176109   1.083245   2.148423   3.416380   3.889817
    24  H    3.889816   3.416380   2.148423   1.083244   2.176108
    25  H    3.407224   3.893212   3.381874   2.150493   1.086299
    26  N    3.748030   2.472637   1.480001   2.472636   3.748030
    27  O    4.713382   3.567328   2.318707   2.718207   4.114750
    28  O    4.114750   2.718208   2.318707   3.567327   4.713382
                   21         22         23         24         25
    21  H    0.000000
    22  H    2.487053   0.000000
    23  H    4.321495   2.506010   0.000000
    24  H    4.321495   4.976086   4.292000   0.000000
    25  H    2.487054   4.306000   4.976087   2.506010   0.000000
    26  N    5.333000   4.620298   2.666091   2.666091   4.620298
    27  O    5.999040   5.673029   3.884852   2.393100   4.773632
    28  O    5.999040   4.773632   2.393100   3.884852   5.673029
                   26         27         28
    26  N    0.000000
    27  O    1.229080   0.000000
    28  O    1.229080   2.182001   0.000000
 Stoichiometry    C12H10N2O4
 Framework group  C1[X(C12H10N2O4)]
 Deg. of freedom    78
 Full point group                 C1      NOp   1
 Largest Abelian subgroup         C1      NOp   1
 Largest concise Abelian subgroup C1      NOp   1
                         Standard orientation:                         
 ---------------------------------------------------------------------
 Center     Atomic      Atomic             Coordinates (Angstroms)
 Number     Number       Type             X           Y           Z
 ---------------------------------------------------------------------
      1          6           0       -3.362540    2.404594    0.221195
      2          6           0       -2.442610    1.499450    0.760608
      3          6           0       -2.661706    0.122050    0.664095
      4          6           0       -3.816481   -0.317387    0.018588
      5          6           0       -4.751750    0.559407   -0.528947
      6          6           0       -4.512147    1.932515   -0.420729
      7          1           0       -3.184376    3.472924    0.300715
      8          1           0       -1.548941    1.863214    1.259684
      9          1           0       -1.966045   -0.600761    1.072774
     10          1           0       -5.633449    0.166669   -1.020660
     11          1           0       -5.228308    2.633147   -0.840578
     12          7           0       -4.059283   -1.773307   -0.089782
     13          8           0       -5.084370   -2.135022   -0.663364
     14          8           0       -3.219907   -2.525174    0.400912
     15          6           0        2.543266    2.278601   -0.033857
     16          6           0        1.861757    1.094065    0.264370
     17          6           0        2.534910   -0.131255    0.265896
     18          6           0        3.895685   -0.135367   -0.036699
     19          6           0        4.602490    1.027810   -0.337921
     20          6           0        3.909050    2.241758   -0.333523
     21          1           0        2.012465    3.226042   -0.032741
     22          1           0        0.801071    1.119663    0.497467
     23          1           0        2.031838   -1.063289    0.493164
     24          1           0        5.659823    0.970527   -0.566355
     25          1           0        4.440890    3.160112   -0.565508
     26          7           0        4.619060   -1.426540   -0.038220
     27          8           0        5.817915   -1.403342   -0.308124
     28          8           0        3.973491   -2.437309    0.230523
 ---------------------------------------------------------------------
 Rotational constants (GHZ):           0.6676171           0.1302935           0.1109604
 Leave Link  202 at Wed May  5 20:50:55 2021, MaxMem=   524288000 cpu:               0.1 elap:               0.1
 (Enter /opt/gaussian/g16_legacy/l301.exe)
 Standard basis: 6-31G(d) (6D, 7F)
 Ernie: Thresh=  0.10000D-02 Tol=  0.10000D-05 Strict=F.
 There are   290 symmetry adapted cartesian basis functions of A   symmetry.
 There are   290 symmetry adapted basis functions of A   symmetry.
   290 basis functions,   544 primitive gaussians,   290 cartesian basis functions
    64 alpha electrons       64 beta electrons
       nuclear repulsion energy      1107.6504327138 Hartrees.
 IExCor=    0 DFT=F Ex=HF Corr=None ExCW=0 ScaHFX=  1.000000
 ScaDFX=  1.000000  1.000000  1.000000  1.000000 ScalE2=  1.000000  1.000000
 IRadAn=      5 IRanWt=     -1 IRanGd=            0 ICorTp=0 IEmpDi=  4
 NAtoms=   28 NActive=   28 NUniq=   28 SFac= 1.00D+00 NAtFMM=   60 NAOKFM=F Big=F
 Integral buffers will be    131072 words long.
 Raffenetti 1 integral format.
 Two-electron integral symmetry is turned on.
 Leave Link  301 at Wed May  5 20:50:55 2021, MaxMem=   524288000 cpu:               0.3 elap:               0.2
 (Enter /opt/gaussian/g16_legacy/l302.exe)
 NPDir=0 NMtPBC=     1 NCelOv=     1 NCel=       1 NClECP=     1 NCelD=      1
         NCelK=      1 NCelE2=     1 NClLst=     1 CellRange=     0.0.
 One-electron integrals computed using PRISM.
 One-electron integral symmetry used in STVInt
 NBasis=   290 RedAO= T EigKep=  4.73D-04  NBF=   290
 NBsUse=   290 1.00D-06 EigRej= -1.00D+00 NBFU=   290
 Leave Link  302 at Wed May  5 20:50:56 2021, MaxMem=   524288000 cpu:               0.8 elap:               0.6
 (Enter /opt/gaussian/g16_legacy/l303.exe)
 DipDrv:  MaxL=1.
 Leave Link  303 at Wed May  5 20:50:56 2021, MaxMem=   524288000 cpu:               0.2 elap:               0.3
 (Enter /opt/gaussian/g16_legacy/l401.exe)
 ExpMin= 1.61D-01 ExpMax= 5.48D+03 ExpMxC= 8.25D+02 IAcc=3 IRadAn=         5 AccDes= 0.00D+00
 Harris functional with IExCor=  205 and IRadAn=       5 diagonalized for initial guess.
 HarFok:  IExCor=  205 AccDes= 0.00D+00 IRadAn=         5 IDoV= 1 UseB2=F ITyADJ=14
 ICtDFT=  3500011 ScaDFX=  1.000000  1.000000  1.000000  1.000000
 FoFCou: FMM=F IPFlag=           0 FMFlag=      100000 FMFlg1=           0
         NFxFlg=           0 DoJE=T BraDBF=F KetDBF=T FulRan=T
         wScrn=  0.000000 ICntrl=       500 IOpCl=  0 I1Cent=   200000004 NGrid=           0
         NMat0=    1 NMatS0=      1 NMatT0=    0 NMatD0=    1 NMtDS0=    0 NMtDT0=    0
 Petite list used in FoFCou.
 Harris En= -869.212135973977    
 JPrj=0 DoOrth=F DoCkMO=F.
 Leave Link  401 at Wed May  5 20:51:02 2021, MaxMem=   524288000 cpu:              11.3 elap:               5.8
 (Enter /opt/gaussian/g16_legacy/l502.exe)
 Integral symmetry usage will be decided dynamically.
 Closed shell SCF:
 Using DIIS extrapolation, IDIIS=  1040.
 NGot=   524288000 LenX=   524114954 LenY=   524030413
 Requested convergence on RMS density matrix=1.00D-08 within 128 cycles.
 Requested convergence on MAX density matrix=1.00D-06.
 Requested convergence on             energy=1.00D-06.
 No special actions if energy rises.
 Fock matrices will be formed incrementally for  20 cycles.
 Integral accuracy reduced to 1.0D-05 until final iterations.

 Cycle   1  Pass 0  IDiag  1:
 FoFJK:  IHMeth= 1 ICntrl=       0 DoSepK=F KAlg= 0 I1Cent=           0 FoldK=F
 IRaf= 670000000 NMat=       1 IRICut=       1 DoRegI=T DoRafI=F ISym2E= 0 IDoP0=0 IntGTp=1.
 FoFCou: FMM=F IPFlag=           0 FMFlag=      100000 FMFlg1=           0
         NFxFlg=           0 DoJE=F BraDBF=F KetDBF=F FulRan=T
         wScrn=  0.000000 ICntrl=         0 IOpCl=  0 I1Cent=           0 NGrid=           0
         NMat0=    1 NMatS0=      1 NMatT0=    0 NMatD0=    1 NMtDS0=    0 NMtDT0=    0
 Symmetry not used in FoFCou.
 E= -867.608326726095    
 DIIS: error= 6.00D-02 at cycle   1 NSaved=   1.
 NSaved= 1 IEnMin= 1 EnMin= -867.608326726095     IErMin= 1 ErrMin= 6.00D-02
 ErrMax= 6.00D-02  0.00D+00 EMaxC= 1.00D-01 BMatC= 1.28D+00 BMatP= 1.28D+00
 IDIUse=3 WtCom= 4.00D-01 WtEn= 6.00D-01
 Coeff-Com:  0.100D+01
 Coeff-En:   0.100D+01
 Coeff:      0.100D+01
 Gap=     0.551 Goal=   None    Shift=    0.000
 GapD=    0.551 DampG=2.000 DampE=0.500 DampFc=1.0000 IDamp=-1.
 RMSDP=4.45D-03 MaxDP=8.91D-02              OVMax= 1.50D-01

 Cycle   2  Pass 0  IDiag  1:
 RMSU=  4.35D-03    CP:  9.52D-01
 E= -868.119302176124     Delta-E=       -0.510975450029 Rises=F Damp=F
 DIIS: error= 3.78D-02 at cycle   2 NSaved=   2.
 NSaved= 2 IEnMin= 2 EnMin= -868.119302176124     IErMin= 2 ErrMin= 3.78D-02
 ErrMax= 3.78D-02  0.00D+00 EMaxC= 1.00D-01 BMatC= 2.89D-01 BMatP= 1.28D+00
 IDIUse=3 WtCom= 6.22D-01 WtEn= 3.78D-01
 Coeff-Com:  0.268D+00 0.732D+00
 Coeff-En:   0.000D+00 0.100D+01
 Coeff:      0.166D+00 0.834D+00
 Gap=     0.475 Goal=   None    Shift=    0.000
 RMSDP=1.88D-03 MaxDP=8.70D-02 DE=-5.11D-01 OVMax= 1.24D-01

 Cycle   3  Pass 0  IDiag  1:
 RMSU=  1.66D-03    CP:  9.54D-01  7.97D-01
 E= -868.282131233365     Delta-E=       -0.162829057242 Rises=F Damp=F
 DIIS: error= 1.99D-02 at cycle   3 NSaved=   3.
 NSaved= 3 IEnMin= 3 EnMin= -868.282131233365     IErMin= 3 ErrMin= 1.99D-02
 ErrMax= 1.99D-02  0.00D+00 EMaxC= 1.00D-01 BMatC= 7.26D-02 BMatP= 2.89D-01
 IDIUse=3 WtCom= 8.01D-01 WtEn= 1.99D-01
 Coeff-Com: -0.225D-01 0.318D+00 0.705D+00
 Coeff-En:   0.000D+00 0.954D-01 0.905D+00
 Coeff:     -0.180D-01 0.274D+00 0.744D+00
 Gap=     0.426 Goal=   None    Shift=    0.000
 RMSDP=7.17D-04 MaxDP=3.11D-02 DE=-1.63D-01 OVMax= 4.80D-02

 Cycle   4  Pass 0  IDiag  1:
 RMSU=  3.88D-04    CP:  9.53D-01  8.98D-01  7.52D-01
 E= -868.333581238919     Delta-E=       -0.051450005554 Rises=F Damp=F
 DIIS: error= 4.11D-03 at cycle   4 NSaved=   4.
 NSaved= 4 IEnMin= 4 EnMin= -868.333581238919     IErMin= 4 ErrMin= 4.11D-03
 ErrMax= 4.11D-03  0.00D+00 EMaxC= 1.00D-01 BMatC= 2.89D-03 BMatP= 7.26D-02
 IDIUse=3 WtCom= 9.59D-01 WtEn= 4.11D-02
 Coeff-Com: -0.125D-01 0.496D-01 0.243D+00 0.720D+00
 Coeff-En:   0.000D+00 0.000D+00 0.000D+00 0.100D+01
 Coeff:     -0.120D-01 0.476D-01 0.233D+00 0.731D+00
 Gap=     0.410 Goal=   None    Shift=    0.000
 RMSDP=1.75D-04 MaxDP=6.77D-03 DE=-5.15D-02 OVMax= 1.04D-02

 Cycle   5  Pass 0  IDiag  1:
 RMSU=  1.13D-04    CP:  9.53D-01  8.99D-01  8.20D-01  8.20D-01
 E= -868.336043871607     Delta-E=       -0.002462632688 Rises=F Damp=F
 DIIS: error= 4.82D-04 at cycle   5 NSaved=   5.
 NSaved= 5 IEnMin= 5 EnMin= -868.336043871607     IErMin= 5 ErrMin= 4.82D-04
 ErrMax= 4.82D-04  0.00D+00 EMaxC= 1.00D-01 BMatC= 8.75D-05 BMatP= 2.89D-03
 IDIUse=3 WtCom= 9.95D-01 WtEn= 4.82D-03
 Coeff-Com:  0.198D-02-0.250D-01-0.638D-01 0.176D-01 0.107D+01
 Coeff-En:   0.000D+00 0.000D+00 0.000D+00 0.000D+00 0.100D+01
 Coeff:      0.197D-02-0.248D-01-0.634D-01 0.175D-01 0.107D+01
 Gap=     0.412 Goal=   None    Shift=    0.000
 RMSDP=5.87D-05 MaxDP=1.84D-03 DE=-2.46D-03 OVMax= 4.52D-03

 Cycle   6  Pass 0  IDiag  1:
 RMSU=  2.86D-05    CP:  9.53D-01  9.03D-01  8.30D-01  9.19D-01  1.21D+00
 E= -868.336216325405     Delta-E=       -0.000172453798 Rises=F Damp=F
 DIIS: error= 3.05D-04 at cycle   6 NSaved=   6.
 NSaved= 6 IEnMin= 6 EnMin= -868.336216325405     IErMin= 6 ErrMin= 3.05D-04
 ErrMax= 3.05D-04  0.00D+00 EMaxC= 1.00D-01 BMatC= 1.02D-05 BMatP= 8.75D-05
 IDIUse=3 WtCom= 9.97D-01 WtEn= 3.05D-03
 Coeff-Com:  0.127D-02-0.784D-02-0.303D-01-0.593D-01 0.849D-01 0.101D+01
 Coeff-En:   0.000D+00 0.000D+00 0.000D+00 0.000D+00 0.000D+00 0.100D+01
 Coeff:      0.127D-02-0.782D-02-0.302D-01-0.591D-01 0.846D-01 0.101D+01
 Gap=     0.412 Goal=   None    Shift=    0.000
 RMSDP=2.27D-05 MaxDP=6.55D-04 DE=-1.72D-04 OVMax= 1.81D-03

 Cycle   7  Pass 0  IDiag  1:
 RMSU=  1.08D-05    CP:  9.53D-01  9.04D-01  8.33D-01  9.39D-01  1.35D+00
                    CP:  1.26D+00
 E= -868.336246052679     Delta-E=       -0.000029727274 Rises=F Damp=F
 DIIS: error= 1.63D-04 at cycle   7 NSaved=   7.
 NSaved= 7 IEnMin= 7 EnMin= -868.336246052679     IErMin= 7 ErrMin= 1.63D-04
 ErrMax= 1.63D-04  0.00D+00 EMaxC= 1.00D-01 BMatC= 2.06D-06 BMatP= 1.02D-05
 IDIUse=3 WtCom= 9.98D-01 WtEn= 1.63D-03
 Coeff-Com: -0.182D-03 0.283D-02 0.679D-02-0.273D-02-0.147D+00 0.437D-01
 Coeff-Com:  0.110D+01
 Coeff-En:   0.000D+00 0.000D+00 0.000D+00 0.000D+00 0.000D+00 0.000D+00
 Coeff-En:   0.100D+01
 Coeff:     -0.182D-03 0.283D-02 0.678D-02-0.273D-02-0.147D+00 0.437D-01
 Coeff:      0.110D+01
 Gap=     0.412 Goal=   None    Shift=    0.000
 RMSDP=1.11D-05 MaxDP=4.89D-04 DE=-2.97D-05 OVMax= 1.33D-03

 Cycle   8  Pass 0  IDiag  1:
 RMSU=  5.50D-06    CP:  9.53D-01  9.04D-01  8.33D-01  9.45D-01  1.39D+00
                    CP:  1.50D+00  1.35D+00
 E= -868.336254319635     Delta-E=       -0.000008266957 Rises=F Damp=F
 DIIS: error= 9.48D-05 at cycle   8 NSaved=   8.
 NSaved= 8 IEnMin= 8 EnMin= -868.336254319635     IErMin= 8 ErrMin= 9.48D-05
 ErrMax= 9.48D-05  0.00D+00 EMaxC= 1.00D-01 BMatC= 5.20D-07 BMatP= 2.06D-06
 IDIUse=1 WtCom= 1.00D+00 WtEn= 0.00D+00
 Coeff-Com: -0.314D-03 0.218D-02 0.804D-02 0.151D-01-0.324D-01-0.239D+00
 Coeff-Com:  0.598D-01 0.119D+01
 Coeff:     -0.314D-03 0.218D-02 0.804D-02 0.151D-01-0.324D-01-0.239D+00
 Coeff:      0.598D-01 0.119D+01
 Gap=     0.412 Goal=   None    Shift=    0.000
 RMSDP=7.00D-06 MaxDP=2.11D-04 DE=-8.27D-06 OVMax= 8.05D-04

 Initial convergence to 1.0D-05 achieved.  Increase integral accuracy.
 Cycle   9  Pass 1  IDiag  1:
 E= -868.336252759093     Delta-E=        0.000001560542 Rises=F Damp=F
 DIIS: error= 5.01D-05 at cycle   1 NSaved=   1.
 NSaved= 1 IEnMin= 1 EnMin= -868.336252759093     IErMin= 1 ErrMin= 5.01D-05
 ErrMax= 5.01D-05  0.00D+00 EMaxC= 1.00D-01 BMatC= 2.17D-07 BMatP= 2.17D-07
 IDIUse=1 WtCom= 1.00D+00 WtEn= 0.00D+00
 Coeff-Com:  0.100D+01
 Coeff:      0.100D+01
 Gap=     0.412 Goal=   None    Shift=    0.000
 RMSDP=7.00D-06 MaxDP=2.11D-04 DE= 1.56D-06 OVMax= 2.32D-04

 Cycle  10  Pass 1  IDiag  1:
 RMSU=  1.50D-05    CP:  1.00D+00
 E= -868.336253150629     Delta-E=       -0.000000391536 Rises=F Damp=F
 DIIS: error= 2.47D-05 at cycle   2 NSaved=   2.
 NSaved= 2 IEnMin= 2 EnMin= -868.336253150629     IErMin= 2 ErrMin= 2.47D-05
 ErrMax= 2.47D-05  0.00D+00 EMaxC= 1.00D-01 BMatC= 3.75D-08 BMatP= 2.17D-07
 IDIUse=1 WtCom= 1.00D+00 WtEn= 0.00D+00
 Coeff-Com:  0.256D-01 0.974D+00
 Coeff:      0.256D-01 0.974D+00
 Gap=     0.412 Goal=   None    Shift=    0.000
 RMSDP=1.35D-06 MaxDP=3.50D-05 DE=-3.92D-07 OVMax= 1.32D-04

 Cycle  11  Pass 1  IDiag  1:
 RMSU=  1.14D-06    CP:  1.00D+00  1.05D+00
 E= -868.336253267680     Delta-E=       -0.000000117051 Rises=F Damp=F
 DIIS: error= 1.49D-05 at cycle   3 NSaved=   3.
 NSaved= 3 IEnMin= 3 EnMin= -868.336253267680     IErMin= 3 ErrMin= 1.49D-05
 ErrMax= 1.49D-05  0.00D+00 EMaxC= 1.00D-01 BMatC= 1.89D-08 BMatP= 3.75D-08
 IDIUse=1 WtCom= 1.00D+00 WtEn= 0.00D+00
 Coeff-Com: -0.124D+00 0.271D+00 0.853D+00
 Coeff:     -0.124D+00 0.271D+00 0.853D+00
 Gap=     0.412 Goal=   None    Shift=    0.000
 RMSDP=8.07D-07 MaxDP=2.48D-05 DE=-1.17D-07 OVMax= 9.76D-05

 Cycle  12  Pass 1  IDiag  1:
 RMSU=  6.27D-07    CP:  1.00D+00  1.06D+00  1.40D+00
 E= -868.336253325799     Delta-E=       -0.000000058119 Rises=F Damp=F
 DIIS: error= 8.92D-06 at cycle   4 NSaved=   4.
 NSaved= 4 IEnMin= 4 EnMin= -868.336253325799     IErMin= 4 ErrMin= 8.92D-06
 ErrMax= 8.92D-06  0.00D+00 EMaxC= 1.00D-01 BMatC= 5.81D-09 BMatP= 1.89D-08
 IDIUse=1 WtCom= 1.00D+00 WtEn= 0.00D+00
 Coeff-Com: -0.941D-03-0.528D+00-0.892D-01 0.162D+01
 Coeff:     -0.941D-03-0.528D+00-0.892D-01 0.162D+01
 Gap=     0.412 Goal=   None    Shift=    0.000
 RMSDP=1.08D-06 MaxDP=3.06D-05 DE=-5.81D-08 OVMax= 1.29D-04

 Cycle  13  Pass 1  IDiag  1:
 RMSU=  2.37D-07    CP:  1.00D+00  1.07D+00  2.21D+00  1.78D+00
 E= -868.336253362960     Delta-E=       -0.000000037161 Rises=F Damp=F
 DIIS: error= 2.57D-06 at cycle   5 NSaved=   5.
 NSaved= 5 IEnMin= 5 EnMin= -868.336253362960     IErMin= 5 ErrMin= 2.57D-06
 ErrMax= 2.57D-06  0.00D+00 EMaxC= 1.00D-01 BMatC= 6.26D-10 BMatP= 5.81D-09
 IDIUse=1 WtCom= 1.00D+00 WtEn= 0.00D+00
 Coeff-Com:  0.149D-01-0.223D+00-0.133D+00 0.574D+00 0.766D+00
 Coeff:      0.149D-01-0.223D+00-0.133D+00 0.574D+00 0.766D+00
 Gap=     0.412 Goal=   None    Shift=    0.000
 RMSDP=2.02D-07 MaxDP=6.41D-06 DE=-3.72D-08 OVMax= 2.41D-05

 Cycle  14  Pass 1  IDiag  1:
 RMSU=  8.71D-08    CP:  1.00D+00  1.07D+00  2.35D+00  1.94D+00  1.03D+00
 E= -868.336253364525     Delta-E=       -0.000000001565 Rises=F Damp=F
 DIIS: error= 4.28D-07 at cycle   6 NSaved=   6.
 NSaved= 6 IEnMin= 6 EnMin= -868.336253364525     IErMin= 6 ErrMin= 4.28D-07
 ErrMax= 4.28D-07  0.00D+00 EMaxC= 1.00D-01 BMatC= 4.31D-11 BMatP= 6.26D-10
 IDIUse=1 WtCom= 1.00D+00 WtEn= 0.00D+00
 Coeff-Com: -0.282D-03 0.579D-01 0.145D-01-0.176D+00-0.240D-01 0.113D+01
 Coeff:     -0.282D-03 0.579D-01 0.145D-01-0.176D+00-0.240D-01 0.113D+01
 Gap=     0.412 Goal=   None    Shift=    0.000
 RMSDP=5.39D-08 MaxDP=2.27D-06 DE=-1.56D-09 OVMax= 5.58D-06

 Cycle  15  Pass 1  IDiag  1:
 RMSU=  2.89D-08    CP:  1.00D+00  1.07D+00  2.36D+00  1.96D+00  1.18D+00
                    CP:  1.24D+00
 E= -868.336253364643     Delta-E=       -0.000000000118 Rises=F Damp=F
 DIIS: error= 1.90D-07 at cycle   7 NSaved=   7.
 NSaved= 7 IEnMin= 7 EnMin= -868.336253364643     IErMin= 7 ErrMin= 1.90D-07
 ErrMax= 1.90D-07  0.00D+00 EMaxC= 1.00D-01 BMatC= 8.29D-12 BMatP= 4.31D-11
 IDIUse=1 WtCom= 1.00D+00 WtEn= 0.00D+00
 Coeff-Com: -0.306D-02 0.599D-01 0.301D-01-0.161D+00-0.155D+00 0.294D+00
 Coeff-Com:  0.935D+00
 Coeff:     -0.306D-02 0.599D-01 0.301D-01-0.161D+00-0.155D+00 0.294D+00
 Coeff:      0.935D+00
 Gap=     0.412 Goal=   None    Shift=    0.000
 RMSDP=2.28D-08 MaxDP=5.51D-07 DE=-1.18D-10 OVMax= 1.36D-06

 Cycle  16  Pass 1  IDiag  1:
 RMSU=  1.04D-08    CP:  1.00D+00  1.07D+00  2.36D+00  1.96D+00  1.22D+00
                    CP:  1.42D+00  1.24D+00
 E= -868.336253364655     Delta-E=       -0.000000000011 Rises=F Damp=F
 DIIS: error= 4.79D-08 at cycle   8 NSaved=   8.
 NSaved= 8 IEnMin= 8 EnMin= -868.336253364655     IErMin= 8 ErrMin= 4.79D-08
 ErrMax= 4.79D-08  0.00D+00 EMaxC= 1.00D-01 BMatC= 4.23D-13 BMatP= 8.29D-12
 IDIUse=1 WtCom= 1.00D+00 WtEn= 0.00D+00
 Coeff-Com: -0.785D-03 0.128D-01 0.705D-02-0.335D-01-0.391D-01 0.261D-01
 Coeff-Com:  0.249D+00 0.778D+00
 Coeff:     -0.785D-03 0.128D-01 0.705D-02-0.335D-01-0.391D-01 0.261D-01
 Coeff:      0.249D+00 0.778D+00
 Gap=     0.412 Goal=   None    Shift=    0.000
 RMSDP=3.07D-09 MaxDP=1.15D-07 DE=-1.14D-11 OVMax= 2.39D-07

 SCF Done:  E(RHF) =  -868.336253365     A.U. after   16 cycles
            NFock= 16  Conv=0.31D-08     -V/T= 2.0031
 KE= 8.656904465608D+02 PE=-4.247775412086D+03 EE= 1.406098279446D+03
 Leave Link  502 at Wed May  5 20:52:03 2021, MaxMem=   524288000 cpu:             116.1 elap:              60.7
 (Enter /opt/gaussian/g16_legacy/l801.exe)
 ExpMin= 1.61D-01 ExpMax= 5.48D+03 ExpMxC= 8.25D+02 IAcc=3 IRadAn=         5 AccDes= 0.00D+00
 HarFok:  IExCor=  205 AccDes= 0.00D+00 IRadAn=         5 IDoV=-2 UseB2=F ITyADJ=14
 ICtDFT= 12500011 ScaDFX=  1.000000  1.000000  1.000000  1.000000
 Largest valence mixing into a core orbital is  1.94D-04
 Largest core mixing into a valence orbital is  4.00D-05
 Range of M.O.s used for correlation:    19   290
 NBasis=   290 NAE=    64 NBE=    64 NFC=    18 NFV=     0
 NROrb=    272 NOA=    46 NOB=    46 NVA=   226 NVB=   226
 Leave Link  801 at Wed May  5 20:52:04 2021, MaxMem=   524288000 cpu:               1.8 elap:               1.1
 (Enter /opt/gaussian/g16_legacy/l906.exe)
 FulOut=F Deriv=F AODrv=F NAtomX=    28
   MMem=          85  MDisk=          46 MDiskD=          46
  W3Min=     3014840 MinDsk=     3114491 NBas6D=         290
 NBas2D=       42681    NTT=       42195    LW2=     2000000
    MDV=   523948203 MDiskM=       24997 NBas2p=       26327
 Fully direct method using O(OVN) memory.
 IMap=   1   2   3   4   5   6   7   8   9  10  11  12  13  14  15  16  17  18  19  20
 IMap=  21  22  23  24  25  26  27  28  29  30  31  32  33  34  35  36  37  38  39  40
 IMap=  41  42  43  44  45  46
 JobTyp=1 Pass  1:  I=   1 to  46 NPSUse=  2 ParTrn=T ParDer=T DoDerP=F.
 Spin components of T(2) and E(2):
     alpha-alpha T2 =       0.1270285639D+00 E2=     -0.3595168023D+00
     alpha-beta  T2 =       0.6479582772D+00 E2=     -0.1880980187D+01
     beta-beta   T2 =       0.1270285639D+00 E2=     -0.3595168023D+00
 The integrals were generated   1 times.
 ANorm=    0.1379135746D+01
 E2 =    -0.2600013792D+01 EUMP2 =    -0.87093626715618D+03
 Leave Link  906 at Wed May  5 20:54:05 2021, MaxMem=   524288000 cpu:             240.1 elap:             120.9
 (Enter /opt/gaussian/g16_legacy/l601.exe)
 Copying SCF densities to generalized density rwf, IOpCl= 0 IROHF=0.

 **********************************************************************

            Population analysis using the SCF density.

 **********************************************************************

 Orbital symmetries:
       Occupied  (A) (A) (A) (A) (A) (A) (A) (A) (A) (A) (A) (A)
                 (A) (A) (A) (A) (A) (A) (A) (A) (A) (A) (A) (A)
                 (A) (A) (A) (A) (A) (A) (A) (A) (A) (A) (A) (A)
                 (A) (A) (A) (A) (A) (A) (A) (A) (A) (A) (A) (A)
                 (A) (A) (A) (A) (A) (A) (A) (A) (A) (A) (A) (A)
                 (A) (A) (A) (A)
       Virtual   (A) (A) (A) (A) (A) (A) (A) (A) (A) (A) (A) (A)
                 (A) (A) (A) (A) (A) (A) (A) (A) (A) (A) (A) (A)
                 (A) (A) (A) (A) (A) (A) (A) (A) (A) (A) (A) (A)
                 (A) (A) (A) (A) (A) (A) (A) (A) (A) (A) (A) (A)
                 (A) (A) (A) (A) (A) (A) (A) (A) (A) (A) (A) (A)
                 (A) (A) (A) (A) (A) (A) (A) (A) (A) (A) (A) (A)
                 (A) (A) (A) (A) (A) (A) (A) (A) (A) (A) (A) (A)
                 (A) (A) (A) (A) (A) (A) (A) (A) (A) (A) (A) (A)
                 (A) (A) (A) (A) (A) (A) (A) (A) (A) (A) (A) (A)
                 (A) (A) (A) (A) (A) (A) (A) (A) (A) (A) (A) (A)
                 (A) (A) (A) (A) (A) (A) (A) (A) (A) (A) (A) (A)
                 (A) (A) (A) (A) (A) (A) (A) (A) (A) (A) (A) (A)
                 (A) (A) (A) (A) (A) (A) (A) (A) (A) (A) (A) (A)
                 (A) (A) (A) (A) (A) (A) (A) (A) (A) (A) (A) (A)
                 (A) (A) (A) (A) (A) (A) (A) (A) (A) (A) (A) (A)
                 (A) (A) (A) (A) (A) (A) (A) (A) (A) (A) (A) (A)
                 (A) (A) (A) (A) (A) (A) (A) (A) (A) (A) (A) (A)
                 (A) (A) (A) (A) (A) (A) (A) (A) (A) (A) (A) (A)
                 (A) (A) (A) (A) (A) (A) (A) (A) (A) (A)
 The electronic state is 1-A.
 Alpha  occ. eigenvalues --  -20.61247 -20.61242 -20.60944 -20.60932 -15.86311
 Alpha  occ. eigenvalues --  -15.86001 -11.31870 -11.31517 -11.28554 -11.28439
 Alpha  occ. eigenvalues --  -11.28277 -11.28132 -11.28102 -11.27957 -11.27651
 Alpha  occ. eigenvalues --  -11.27468 -11.27265 -11.27153  -1.60319  -1.60014
 Alpha  occ. eigenvalues --   -1.39868  -1.39563  -1.20080  -1.19724  -1.09434
 Alpha  occ. eigenvalues --   -1.09103  -1.05533  -1.05158  -0.96232  -0.95904
 Alpha  occ. eigenvalues --   -0.86919  -0.86558  -0.83082  -0.82735  -0.78101
 Alpha  occ. eigenvalues --   -0.77739  -0.72523  -0.72216  -0.71646  -0.71340
 Alpha  occ. eigenvalues --   -0.71183  -0.70854  -0.65745  -0.65643  -0.65385
 Alpha  occ. eigenvalues --   -0.65138  -0.62935  -0.62440  -0.56015  -0.55690
 Alpha  occ. eigenvalues --   -0.53836  -0.53682  -0.53468  -0.53201  -0.49298
 Alpha  occ. eigenvalues --   -0.49268  -0.48990  -0.48960  -0.45231  -0.44934
 Alpha  occ. eigenvalues --   -0.38055  -0.37728  -0.37133  -0.36754
 Alpha virt. eigenvalues --    0.04453   0.04805   0.10486   0.10884   0.15724
 Alpha virt. eigenvalues --    0.16245   0.18398   0.21996   0.24719   0.26802
 Alpha virt. eigenvalues --    0.27994   0.29175   0.29556   0.31305   0.32031
 Alpha virt. eigenvalues --    0.33370   0.33940   0.34624   0.36576   0.37734
 Alpha virt. eigenvalues --    0.42369   0.42935   0.43586   0.43979   0.45902
 Alpha virt. eigenvalues --    0.47167   0.48711   0.49105   0.50348   0.51101
 Alpha virt. eigenvalues --    0.56341   0.56664   0.66618   0.67008   0.68197
 Alpha virt. eigenvalues --    0.68546   0.69667   0.70089   0.71277   0.71501
 Alpha virt. eigenvalues --    0.76872   0.77456   0.77939   0.78034   0.78329
 Alpha virt. eigenvalues --    0.78394   0.78633   0.78927   0.79541   0.79846
 Alpha virt. eigenvalues --    0.80330   0.80800   0.81393   0.82489   0.85179
 Alpha virt. eigenvalues --    0.85489   0.87048   0.87101   0.87558   0.87989
 Alpha virt. eigenvalues --    0.93117   0.93504   0.95870   0.96352   0.99919
 Alpha virt. eigenvalues --    1.00318   1.01420   1.01733   1.03681   1.04157
 Alpha virt. eigenvalues --    1.05933   1.06519   1.07504   1.07689   1.07785
 Alpha virt. eigenvalues --    1.08495   1.09313   1.11533   1.14155   1.15718
 Alpha virt. eigenvalues --    1.16084   1.16531   1.16919   1.18732   1.19246
 Alpha virt. eigenvalues --    1.22148   1.22782   1.23139   1.23434   1.23599
 Alpha virt. eigenvalues --    1.27203   1.27409   1.27960   1.28164   1.30098
 Alpha virt. eigenvalues --    1.30643   1.30935   1.32442   1.33685   1.34211
 Alpha virt. eigenvalues --    1.39853   1.40399   1.45955   1.46277   1.46685
 Alpha virt. eigenvalues --    1.46947   1.52022   1.52314   1.52822   1.53143
 Alpha virt. eigenvalues --    1.59777   1.60070   1.64879   1.65185   1.65877
 Alpha virt. eigenvalues --    1.66206   1.66640   1.66726   1.66957   1.67889
 Alpha virt. eigenvalues --    1.71930   1.72239   1.72520   1.72864   1.73034
 Alpha virt. eigenvalues --    1.73228   1.74848   1.75105   1.96467   1.96780
 Alpha virt. eigenvalues --    1.98777   1.99087   1.99199   1.99674   2.03793
 Alpha virt. eigenvalues --    2.04048   2.04272   2.04367   2.09620   2.09918
 Alpha virt. eigenvalues --    2.11880   2.12177   2.12387   2.13384   2.20887
 Alpha virt. eigenvalues --    2.21158   2.21288   2.21453   2.24220   2.24483
 Alpha virt. eigenvalues --    2.26574   2.26910   2.32101   2.32490   2.35648
 Alpha virt. eigenvalues --    2.35744   2.37096   2.37362   2.42179   2.42504
 Alpha virt. eigenvalues --    2.42813   2.43126   2.43911   2.44236   2.45094
 Alpha virt. eigenvalues --    2.45362   2.46192   2.46550   2.57398   2.57718
 Alpha virt. eigenvalues --    2.57874   2.58205   2.58843   2.59153   2.69608
 Alpha virt. eigenvalues --    2.69928   2.80856   2.81111   2.82965   2.83283
 Alpha virt. eigenvalues --    2.90926   2.91249   2.91291   2.91608   2.91818
 Alpha virt. eigenvalues --    2.92240   2.99221   2.99502   3.03980   3.04173
 Alpha virt. eigenvalues --    3.04400   3.04493   3.06290   3.06678   3.09741
 Alpha virt. eigenvalues --    3.10571   3.22966   3.23236   3.24020   3.24366
 Alpha virt. eigenvalues --    3.27107   3.27391   3.42561   3.42878   3.52265
 Alpha virt. eigenvalues --    3.52620   3.76254   3.76600   4.12531   4.12861
 Alpha virt. eigenvalues --    4.28106   4.28483   4.37383   4.37701   4.47192
 Alpha virt. eigenvalues --    4.47807   4.49919   4.50553   4.52177   4.52543
 Alpha virt. eigenvalues --    4.71129   4.71761   4.75928   4.76317   5.08174
 Alpha virt. eigenvalues --    5.08568
          Condensed to atoms (all electrons):
               1          2          3          4          5          6
     1  C    4.874210   0.542092  -0.045191  -0.028776  -0.045578   0.543444
     2  C    0.542092   4.940415   0.519984  -0.039932  -0.030064  -0.043840
     3  C   -0.045191   0.519984   4.921515   0.549622  -0.053387  -0.030149
     4  C   -0.028776  -0.039932   0.549622   4.817479   0.548730  -0.039972
     5  C   -0.045578  -0.030064  -0.053387   0.548730   4.918123   0.521664
     6  C    0.543444  -0.043840  -0.030149  -0.039972   0.521664   4.931327
     7  H    0.381285  -0.028505   0.002148   0.000216   0.002165  -0.027371
     8  H   -0.027542   0.381902  -0.028865   0.001543   0.000200   0.002330
     9  H    0.001920  -0.025186   0.368162  -0.018339   0.002614  -0.000068
    10  H    0.001923  -0.000055   0.002583  -0.019323   0.368001  -0.023893
    11  H   -0.027622   0.002346   0.000204   0.001541  -0.027029   0.382460
    12  N    0.000012   0.001485  -0.044575   0.243833  -0.044317   0.001518
    13  O   -0.000004  -0.000027   0.003749  -0.087947   0.004140   0.000782
    14  O   -0.000004   0.000804   0.004310  -0.088119   0.003709  -0.000028
    15  C   -0.000000   0.000007   0.000001  -0.000000  -0.000000  -0.000000
    16  C   -0.000004  -0.000818  -0.000183   0.000002   0.000000   0.000000
    17  C    0.000000   0.000015  -0.000002  -0.000000  -0.000000  -0.000000
    18  C    0.000000   0.000000   0.000000   0.000000  -0.000000  -0.000000
    19  C   -0.000000  -0.000000  -0.000000   0.000000   0.000000   0.000000
    20  C    0.000000   0.000000   0.000000   0.000000  -0.000000  -0.000000
    21  H   -0.000000  -0.000000  -0.000000   0.000000   0.000000   0.000000
    22  H    0.000037   0.001602   0.000747   0.000004  -0.000002  -0.000003
    23  H   -0.000000  -0.000002  -0.000000  -0.000000   0.000000  -0.000000
    24  H   -0.000000  -0.000000  -0.000000   0.000000   0.000000   0.000000
    25  H    0.000000   0.000000  -0.000000  -0.000000  -0.000000  -0.000000
    26  N   -0.000000  -0.000000  -0.000000   0.000000   0.000000   0.000000
    27  O   -0.000000  -0.000000  -0.000000   0.000000  -0.000000   0.000000
    28  O   -0.000000  -0.000000   0.000000  -0.000000  -0.000000   0.000000
               7          8          9         10         11         12
     1  C    0.381285  -0.027542   0.001920   0.001923  -0.027622   0.000012
     2  C   -0.028505   0.381902  -0.025186  -0.000055   0.002346   0.001485
     3  C    0.002148  -0.028865   0.368162   0.002583   0.000204  -0.044575
     4  C    0.000216   0.001543  -0.018339  -0.019323   0.001541   0.243833
     5  C    0.002165   0.000200   0.002614   0.368001  -0.027029  -0.044317
     6  C   -0.027371   0.002330  -0.000068  -0.023893   0.382460   0.001518
     7  H    0.446710  -0.001153  -0.000071  -0.000071  -0.001193   0.000002
     8  H   -0.001153   0.455105  -0.001214   0.000007  -0.000094  -0.000050
     9  H   -0.000071  -0.001214   0.394208  -0.000075   0.000007  -0.005446
    10  H   -0.000071   0.000007  -0.000075   0.389628  -0.001085  -0.005352
    11  H   -0.001193  -0.000094   0.000007  -0.001085   0.444430  -0.000049
    12  N    0.000002  -0.000050  -0.005446  -0.005352  -0.000049   5.735853
    13  O    0.000000   0.000000   0.000049   0.009078  -0.000001   0.314783
    14  O    0.000000  -0.000000   0.009220   0.000048   0.000000   0.314237
    15  C   -0.000000   0.000001   0.000000  -0.000000  -0.000000   0.000000
    16  C    0.000000   0.000196   0.000011  -0.000000   0.000000  -0.000000
    17  C    0.000000  -0.000003   0.000010   0.000000  -0.000000   0.000000
    18  C   -0.000000  -0.000000   0.000000  -0.000000   0.000000  -0.000000
    19  C   -0.000000   0.000000   0.000000  -0.000000   0.000000  -0.000000
    20  C    0.000000  -0.000000  -0.000000   0.000000  -0.000000  -0.000000
    21  H    0.000000   0.000017  -0.000000   0.000000  -0.000000  -0.000000
    22  H   -0.000002   0.000936   0.000098   0.000000  -0.000000  -0.000000
    23  H   -0.000000  -0.000002   0.000021  -0.000000  -0.000000  -0.000000
    24  H   -0.000000   0.000000  -0.000000  -0.000000   0.000000  -0.000000
    25  H   -0.000000  -0.000000  -0.000000   0.000000  -0.000000   0.000000
    26  N    0.000000   0.000000  -0.000000   0.000000  -0.000000  -0.000000
    27  O   -0.000000   0.000000  -0.000000   0.000000   0.000000  -0.000000
    28  O   -0.000000   0.000000  -0.000000  -0.000000   0.000000   0.000000
              13         14         15         16         17         18
     1  C   -0.000004  -0.000004  -0.000000  -0.000004   0.000000   0.000000
     2  C   -0.000027   0.000804   0.000007  -0.000818   0.000015   0.000000
     3  C    0.003749   0.004310   0.000001  -0.000183  -0.000002   0.000000
     4  C   -0.087947  -0.088119  -0.000000   0.000002  -0.000000   0.000000
     5  C    0.004140   0.003709  -0.000000   0.000000  -0.000000  -0.000000
     6  C    0.000782  -0.000028  -0.000000   0.000000  -0.000000  -0.000000
     7  H    0.000000   0.000000  -0.000000   0.000000   0.000000  -0.000000
     8  H    0.000000  -0.000000   0.000001   0.000196  -0.000003  -0.000000
     9  H    0.000049   0.009220   0.000000   0.000011   0.000010   0.000000
    10  H    0.009078   0.000048  -0.000000  -0.000000   0.000000  -0.000000
    11  H   -0.000001   0.000000  -0.000000   0.000000  -0.000000   0.000000
    12  N    0.314783   0.314237   0.000000  -0.000000   0.000000  -0.000000
    13  O    8.300916  -0.087652  -0.000000  -0.000000   0.000000  -0.000000
    14  O   -0.087652   8.301887  -0.000000   0.000000  -0.000000  -0.000000
    15  C   -0.000000  -0.000000   4.876294   0.542301  -0.044580  -0.028881
    16  C   -0.000000   0.000000   0.542301   4.942013   0.521219  -0.039903
    17  C    0.000000  -0.000000  -0.044580   0.521219   4.920068   0.548898
    18  C   -0.000000  -0.000000  -0.028881  -0.039903   0.548898   4.819463
    19  C    0.000000   0.000000  -0.045459  -0.030392  -0.052932   0.548401
    20  C   -0.000000  -0.000000   0.542971  -0.043123  -0.030606  -0.039977
    21  H    0.000000   0.000000   0.381285  -0.028671   0.002194   0.000217
    22  H   -0.000000  -0.000000  -0.028507   0.377509  -0.027112   0.001543
    23  H    0.000000   0.000000   0.001879  -0.024062   0.367391  -0.018461
    24  H    0.000000   0.000000   0.001943  -0.000066   0.002590  -0.019442
    25  H    0.000000  -0.000000  -0.027838   0.002342   0.000198   0.001555
    26  N    0.000000   0.000000   0.000022   0.001489  -0.044368   0.243607
    27  O    0.000000   0.000000  -0.000004  -0.000030   0.003745  -0.088063
    28  O   -0.000000   0.000000  -0.000003   0.000778   0.004274  -0.088089
              19         20         21         22         23         24
     1  C   -0.000000   0.000000  -0.000000   0.000037  -0.000000  -0.000000
     2  C   -0.000000   0.000000  -0.000000   0.001602  -0.000002  -0.000000
     3  C   -0.000000   0.000000  -0.000000   0.000747  -0.000000  -0.000000
     4  C    0.000000   0.000000   0.000000   0.000004  -0.000000   0.000000
     5  C    0.000000  -0.000000   0.000000  -0.000002   0.000000   0.000000
     6  C    0.000000  -0.000000   0.000000  -0.000003  -0.000000   0.000000
     7  H   -0.000000   0.000000   0.000000  -0.000002  -0.000000  -0.000000
     8  H    0.000000  -0.000000   0.000017   0.000936  -0.000002   0.000000
     9  H    0.000000  -0.000000  -0.000000   0.000098   0.000021  -0.000000
    10  H   -0.000000   0.000000   0.000000   0.000000  -0.000000  -0.000000
    11  H    0.000000  -0.000000  -0.000000  -0.000000  -0.000000   0.000000
    12  N   -0.000000  -0.000000  -0.000000  -0.000000  -0.000000  -0.000000
    13  O    0.000000  -0.000000   0.000000  -0.000000   0.000000   0.000000
    14  O    0.000000  -0.000000   0.000000  -0.000000   0.000000   0.000000
    15  C   -0.045459   0.542971   0.381285  -0.028507   0.001879   0.001943
    16  C   -0.030392  -0.043123  -0.028671   0.377509  -0.024062  -0.000066
    17  C   -0.052932  -0.030606   0.002194  -0.027112   0.367391   0.002590
    18  C    0.548401  -0.039977   0.000217   0.001543  -0.018461  -0.019442
    19  C    4.918716   0.522309   0.002188   0.000210   0.002554   0.368216
    20  C    0.522309   4.931270  -0.027642   0.002373  -0.000056  -0.024045
    21  H    0.002188  -0.027642   0.451033  -0.001188  -0.000071  -0.000071
    22  H    0.000210   0.002373  -0.001188   0.455794  -0.000968   0.000007
    23  H    0.002554  -0.000056  -0.000071  -0.000968   0.389080  -0.000075
    24  H    0.368216  -0.024045  -0.000071   0.000007  -0.000075   0.391078
    25  H   -0.027126   0.382560  -0.001209  -0.000095   0.000007  -0.001100
    26  N   -0.044482   0.001499   0.000002  -0.000051  -0.005368  -0.005355
    27  O    0.004153   0.000780   0.000000   0.000000   0.000049   0.009102
    28  O    0.003714  -0.000028   0.000000  -0.000001   0.009115   0.000048
              25         26         27         28
     1  C    0.000000  -0.000000  -0.000000  -0.000000
     2  C    0.000000  -0.000000  -0.000000  -0.000000
     3  C   -0.000000  -0.000000  -0.000000   0.000000
     4  C   -0.000000   0.000000   0.000000  -0.000000
     5  C   -0.000000   0.000000  -0.000000  -0.000000
     6  C   -0.000000   0.000000   0.000000   0.000000
     7  H   -0.000000   0.000000  -0.000000  -0.000000
     8  H   -0.000000   0.000000   0.000000   0.000000
     9  H   -0.000000  -0.000000  -0.000000  -0.000000
    10  H    0.000000   0.000000   0.000000  -0.000000
    11  H   -0.000000  -0.000000   0.000000   0.000000
    12  N    0.000000  -0.000000  -0.000000   0.000000
    13  O    0.000000   0.000000   0.000000  -0.000000
    14  O   -0.000000   0.000000   0.000000   0.000000
    15  C   -0.027838   0.000022  -0.000004  -0.000003
    16  C    0.002342   0.001489  -0.000030   0.000778
    17  C    0.000198  -0.044368   0.003745   0.004274
    18  C    0.001555   0.243607  -0.088063  -0.088089
    19  C   -0.027126  -0.044482   0.004153   0.003714
    20  C    0.382560   0.001499   0.000780  -0.000028
    21  H   -0.001209   0.000002   0.000000   0.000000
    22  H   -0.000095  -0.000051   0.000000  -0.000001
    23  H    0.000007  -0.005368   0.000049   0.009115
    24  H   -0.001100  -0.005355   0.009102   0.000048
    25  H    0.446556  -0.000049  -0.000001   0.000000
    26  N   -0.000049   5.736013   0.314510   0.314680
    27  O   -0.000001   0.314510   8.303168  -0.087668
    28  O    0.000000   0.314680  -0.087668   8.300577
 Mulliken charges:
               1
     1  C   -0.170201
     2  C   -0.222223
     3  C   -0.170673
     4  C    0.159439
     5  C   -0.168970
     6  C   -0.218203
     7  H    0.225838
     8  H    0.216686
     9  H    0.274079
    10  H    0.278587
    11  H    0.226084
    12  N    0.488065
    13  O   -0.457866
    14  O   -0.458413
    15  C   -0.171431
    16  C   -0.220609
    17  C   -0.171001
    18  C    0.159131
    19  C   -0.170068
    20  C   -0.218286
    21  H    0.221919
    22  H    0.217070
    23  H    0.278968
    24  H    0.277169
    25  H    0.224200
    26  N    0.487850
    27  O   -0.459744
    28  O   -0.457398
 Sum of Mulliken charges =  -0.00000
 Mulliken charges with hydrogens summed into heavy atoms:
               1
     1  C    0.055638
     2  C   -0.005538
     3  C    0.103407
     4  C    0.159439
     5  C    0.109617
     6  C    0.007881
    12  N    0.488065
    13  O   -0.457866
    14  O   -0.458413
    15  C    0.050487
    16  C   -0.003539
    17  C    0.107967
    18  C    0.159131
    19  C    0.107100
    20  C    0.005914
    26  N    0.487850
    27  O   -0.459744
    28  O   -0.457398
 Electronic spatial extent (au):  <R**2>=           8790.8764
 Charge=             -0.0000 electrons
 Dipole moment (field-independent basis, Debye):
    X=             -1.8076    Y=              9.5491    Z=              0.2851  Tot=              9.7229
 Quadrupole moment (field-independent basis, Debye-Ang):
   XX=           -122.4448   YY=           -108.9900   ZZ=           -104.8648
   XY=             -0.5087   XZ=              0.0166   YZ=             -1.5281
 Traceless Quadrupole moment (field-independent basis, Debye-Ang):
   XX=            -10.3449   YY=              3.1099   ZZ=              7.2350
   XY=             -0.5087   XZ=              0.0166   YZ=             -1.5281
 Octapole moment (field-independent basis, Debye-Ang**2):
  XXX=            -93.8100  YYY=             60.4266  ZZZ=             -1.9268  XYY=              6.7302
  XXY=            184.8032  XXZ=            -15.3531  XZZ=              1.9624  YZZ=            -18.6003
  YYZ=             -4.1751  XYZ=              4.7677
 Hexadecapole moment (field-independent basis, Debye-Ang**3):
 XXXX=         -10118.7395 YYYY=          -1818.6528 ZZZZ=           -213.2247 XXXY=            109.6867
 XXXZ=             61.3232 YYYX=            -36.5311 YYYZ=             -4.3149 ZZZX=             12.8006
 ZZZY=              0.2062 XXYY=          -2068.8056 XXZZ=          -1618.1534 YYZZ=           -350.1143
 XXYZ=           -117.5715 YYXZ=            -18.7618 ZZXY=             -9.9362
 N-N= 1.107650432714D+03 E-N=-4.247775418407D+03  KE= 8.656904465608D+02
 Leave Link  601 at Wed May  5 20:54:05 2021, MaxMem=   524288000 cpu:               0.6 elap:               0.6
 (Enter /opt/gaussian/g16_legacy/l9999.exe)
 1\1\GINC-TRUENO90\SP\RMP2-FC\6-31G(d)\C12H10N2O4\JRAMOS\05-May-2021\0\
 \#p 6-31g* mp2\\Input file generated by CHIRIPA (05-May-2021 14:57:21)
 \\0,1\C,0,1.914143,0.,0.\C,0,1.214143,1.211,0.\C,0,-0.183857,1.223,0.\
 C,0,-0.852857,0.,0.\C,0,-0.183857,-1.223,0.\C,0,1.214143,-1.211,0.\H,0
 ,3.000143,0.,0.\H,0,1.755143,2.153,0.\H,0,-0.750857,2.146,0.\H,0,-0.75
 0857,-2.146,0.\H,0,1.755143,-2.153,0.\N,0,-2.332857,0.,0.\O,0,-2.89885
 7,-1.091,0.\O,0,-2.898857,1.091,0.\C,0,2.740404,4.944485,3.135097\C,0,
 1.485172,4.719415,2.560417\C,0,0.390334,5.514444,2.912276\C,0,0.587375
 ,6.530335,3.846316\C,0,1.825526,6.779378,4.436442\C,0,2.906282,5.97193
 7,4.069628\H,0,3.585431,4.322066,2.855955\H,0,1.35341,3.922202,1.83437
 6\H,0,-0.592426,5.362085,2.482871\H,0,1.925909,7.581666,5.157327\H,0,3
 .879959,6.149023,4.517556\N,0,-0.564228,7.378567,4.22673\O,0,-0.364492
 ,8.267163,5.052043\O,0,-1.644783,7.138755,3.692382\\Version=EM64L-G16R
 evA.03\State=1-A\HF=-868.3362534\MP2=-870.9362672\RMSD=3.073e-09\PG=C0
 1 [X(C12H10N2O4)]\\@


     ON THE SURVIVAL OF THE FITTEST -
 "STRONG REPRESENTATIVES FROM EACH PAST ERA THRIVE TODAY,
 SUCH AS PROGRAMMING IN THE THIRTY YEAR OLD LANGUAGE KNOWN
 AS FORTRAN, AND EVEN IN THE ANCIENT SCRIPT KNOWN AS DIRECT
 MACHINE CODE. SOME PEOPLE MIGHT LOOK ON SUCH RELICS AS LIVING
 FOSSILS; OTHERS WOULD POINT OUT THAT EVEN A VERY OLD SPECIES
 MIGHT STILL BE FILLING A PARTICULAR ECOLOGICAL NICHE."
     -- ALAN KAY, SCI.AM. SEPTEMBER 1984
 Job cpu time:       0 days  0 hours  6 minutes 12.2 seconds.
 Elapsed time:       0 days  0 hours  3 minutes 11.2 seconds.
 File lengths (MBytes):  RWF=     50 Int=      0 D2E=      0 Chk=      7 Scr=      1
 Normal termination of Gaussian 16 at Wed May  5 20:54:06 2021.
