 Entering Gaussian System, Link 0=/opt/gaussian/g16_legacy/g16
 Input=gaussian_01027_2_2.com
 Output=gaussian_01027_2_2.log
 Initial command:
 /opt/gaussian/g16_legacy/l1.exe "/scratch-local/jramos/2599569/Gau-11865.inp" -scrdir="/scratch-local/jramos/2599569/"
 Entering Link 1 = /opt/gaussian/g16_legacy/l1.exe PID=     11866.
  
 Copyright (c) 1988,1990,1992,1993,1995,1998,2003,2009,2016,
            Gaussian, Inc.  All Rights Reserved.
  
 This is part of the Gaussian(R) 16 program.  It is based on
 the Gaussian(R) 09 system (copyright 2009, Gaussian, Inc.),
 the Gaussian(R) 03 system (copyright 2003, Gaussian, Inc.),
 the Gaussian(R) 98 system (copyright 1998, Gaussian, Inc.),
 the Gaussian(R) 94 system (copyright 1995, Gaussian, Inc.),
 the Gaussian 92(TM) system (copyright 1992, Gaussian, Inc.),
 the Gaussian 90(TM) system (copyright 1990, Gaussian, Inc.),
 the Gaussian 88(TM) system (copyright 1988, Gaussian, Inc.),
 the Gaussian 86(TM) system (copyright 1986, Carnegie Mellon
 University), and the Gaussian 82(TM) system (copyright 1983,
 Carnegie Mellon University). Gaussian is a federally registered
 trademark of Gaussian, Inc.
  
 This software contains proprietary and confidential information,
 including trade secrets, belonging to Gaussian, Inc.
  
 This software is provided under written license and may be
 used, copied, transmitted, or stored only in accord with that
 written license.
  
 The following legend is applicable only to US Government
 contracts under FAR:
  
                    RESTRICTED RIGHTS LEGEND
  
 Use, reproduction and disclosure by the US Government is
 subject to restrictions as set forth in subparagraphs (a)
 and (c) of the Commercial Computer Software - Restricted
 Rights clause in FAR 52.227-19.
  
 Gaussian, Inc.
 340 Quinnipiac St., Bldg. 40, Wallingford CT 06492
  
  
 ---------------------------------------------------------------
 Warning -- This program may not be used in any manner that
 competes with the business of Gaussian, Inc. or will provide
 assistance to any competitor of Gaussian, Inc.  The licensee
 of this program is prohibited from giving any competitor of
 Gaussian, Inc. access to this program.  By using this program,
 the user acknowledges that Gaussian, Inc. is engaged in the
 business of creating and licensing software in the field of
 computational chemistry and represents and warrants to the
 licensee that it is not a competitor of Gaussian, Inc. and that
 it will not use this program in any manner prohibited above.
 ---------------------------------------------------------------
  

 Cite this work as:
 Gaussian 16, Revision A.03,
 M. J. Frisch, G. W. Trucks, H. B. Schlegel, G. E. Scuseria, 
 M. A. Robb, J. R. Cheeseman, G. Scalmani, V. Barone, 
 G. A. Petersson, H. Nakatsuji, X. Li, M. Caricato, A. V. Marenich, 
 J. Bloino, B. G. Janesko, R. Gomperts, B. Mennucci, H. P. Hratchian, 
 J. V. Ortiz, A. F. Izmaylov, J. L. Sonnenberg, D. Williams-Young, 
 F. Ding, F. Lipparini, F. Egidi, J. Goings, B. Peng, A. Petrone, 
 T. Henderson, D. Ranasinghe, V. G. Zakrzewski, J. Gao, N. Rega, 
 G. Zheng, W. Liang, M. Hada, M. Ehara, K. Toyota, R. Fukuda, 
 J. Hasegawa, M. Ishida, T. Nakajima, Y. Honda, O. Kitao, H. Nakai, 
 T. Vreven, K. Throssell, J. A. Montgomery, Jr., J. E. Peralta, 
 F. Ogliaro, M. J. Bearpark, J. J. Heyd, E. N. Brothers, K. N. Kudin, 
 V. N. Staroverov, T. A. Keith, R. Kobayashi, J. Normand, 
 K. Raghavachari, A. P. Rendell, J. C. Burant, S. S. Iyengar, 
 J. Tomasi, M. Cossi, J. M. Millam, M. Klene, C. Adamo, R. Cammi, 
 J. W. Ochterski, R. L. Martin, K. Morokuma, O. Farkas, 
 J. B. Foresman, and D. J. Fox, Gaussian, Inc., Wallingford CT, 2016.
 
 ******************************************
 Gaussian 16:  EM64L-G16RevA.03 25-Dec-2016
                 6-May-2021 
 ******************************************
 %chk=gaussian_01027_2_2.chk
 %nproc=2
 Will use up to    2 processors via shared memory.
 %mem=4000Mb
 -------------
 #p 6-31g* mp2
 -------------
 1/38=1,172=1/1;
 2/12=2,17=6,18=5,40=1/2;
 3/5=1,6=6,7=1,11=9,25=1,30=1/1,2,3;
 4//1;
 5/5=2,38=5/2;
 8/10=2/1;
 9/16=-3/6;
 6/7=2,8=2,9=2,10=2/1;
 99/5=1,9=1/99;
 Leave Link    1 at Thu May  6 16:10:54 2021, MaxMem=   524288000 cpu:               0.0 elap:               0.0
 (Enter /opt/gaussian/g16_legacy/l101.exe)
 ------------------------------------------------------
 Input file generated by CHIRIPA (05-May-2021 14:57:22)
 ------------------------------------------------------
 Symbolic Z-matrix:
 Charge =  0 Multiplicity = 1
 C                     1.91414   0.        0. 
 C                     1.21414   1.211     0. 
 C                    -0.18386   1.223     0. 
 C                    -0.85286   0.        0. 
 C                    -0.18386  -1.223     0. 
 C                     1.21414  -1.211     0. 
 H                     3.00014   0.        0. 
 H                     1.75514   2.153     0. 
 H                    -0.75086   2.146     0. 
 H                    -0.75086  -2.146     0. 
 H                     1.75514  -2.153     0. 
 N                    -2.33286   0.        0. 
 O                    -2.89886  -1.091     0. 
 O                    -2.89886   1.091     0. 
 C                     1.60166   3.23144  -7.98912 
 C                     0.99025   4.38978  -7.49825 
 C                     0.78127   4.55527  -6.12585 
 C                     1.19801   3.53779  -5.26891 
 C                     1.80995   2.37217  -5.72735 
 C                     2.00883   2.2281   -7.10366 
 H                     1.76008   3.1112   -9.05675 
 H                     0.673     5.17063  -8.18357 
 H                     0.31038   5.44184  -5.71882 
 H                     2.11541   1.61115  -5.01956 
 H                     2.48392   1.32745  -7.48204 
 N                     0.98212   3.70165  -3.81394 
 O                     1.35838   2.79058  -3.07977 
 O                     0.44072   4.73805  -3.43526 
 
 ITRead=  0  0  0  0  0  0  0  0  0  0  0  0  0  0  0  0  0  0  0  0
 ITRead=  0  0  0  0  0  0  0  0
 MicOpt= -1 -1 -1 -1 -1 -1 -1 -1 -1 -1 -1 -1 -1 -1 -1 -1 -1 -1 -1 -1
 MicOpt= -1 -1 -1 -1 -1 -1 -1 -1
 NAtoms=     28 NQM=       28 NQMF=       0 NMMI=      0 NMMIF=      0
                NMic=       0 NMicF=      0.
                    Isotopes and Nuclear Properties:
 (Nuclear quadrupole moments (NQMom) in fm**2, nuclear magnetic moments (NMagM)
  in nuclear magnetons)

  Atom         1           2           3           4           5           6           7           8           9          10
 IAtWgt=          12          12          12          12          12          12           1           1           1           1
 AtmWgt=  12.0000000  12.0000000  12.0000000  12.0000000  12.0000000  12.0000000   1.0078250   1.0078250   1.0078250   1.0078250
 NucSpn=           0           0           0           0           0           0           1           1           1           1
 AtZEff=  -0.0000000  -0.0000000  -0.0000000  -0.0000000  -0.0000000  -0.0000000  -0.0000000  -0.0000000  -0.0000000  -0.0000000
 NQMom=    0.0000000   0.0000000   0.0000000   0.0000000   0.0000000   0.0000000   0.0000000   0.0000000   0.0000000   0.0000000
 NMagM=    0.0000000   0.0000000   0.0000000   0.0000000   0.0000000   0.0000000   2.7928460   2.7928460   2.7928460   2.7928460
 AtZNuc=   6.0000000   6.0000000   6.0000000   6.0000000   6.0000000   6.0000000   1.0000000   1.0000000   1.0000000   1.0000000

  Atom        11          12          13          14          15          16          17          18          19          20
 IAtWgt=           1          14          16          16          12          12          12          12          12          12
 AtmWgt=   1.0078250  14.0030740  15.9949146  15.9949146  12.0000000  12.0000000  12.0000000  12.0000000  12.0000000  12.0000000
 NucSpn=           1           2           0           0           0           0           0           0           0           0
 AtZEff=  -0.0000000  -0.0000000  -0.0000000  -0.0000000  -0.0000000  -0.0000000  -0.0000000  -0.0000000  -0.0000000  -0.0000000
 NQMom=    0.0000000   2.0440000   0.0000000   0.0000000   0.0000000   0.0000000   0.0000000   0.0000000   0.0000000   0.0000000
 NMagM=    2.7928460   0.4037610   0.0000000   0.0000000   0.0000000   0.0000000   0.0000000   0.0000000   0.0000000   0.0000000
 AtZNuc=   1.0000000   7.0000000   8.0000000   8.0000000   6.0000000   6.0000000   6.0000000   6.0000000   6.0000000   6.0000000

  Atom        21          22          23          24          25          26          27          28
 IAtWgt=           1           1           1           1           1          14          16          16
 AtmWgt=   1.0078250   1.0078250   1.0078250   1.0078250   1.0078250  14.0030740  15.9949146  15.9949146
 NucSpn=           1           1           1           1           1           2           0           0
 AtZEff=  -0.0000000  -0.0000000  -0.0000000  -0.0000000  -0.0000000  -0.0000000  -0.0000000  -0.0000000
 NQMom=    0.0000000   0.0000000   0.0000000   0.0000000   0.0000000   2.0440000   0.0000000   0.0000000
 NMagM=    2.7928460   2.7928460   2.7928460   2.7928460   2.7928460   0.4037610   0.0000000   0.0000000
 AtZNuc=   1.0000000   1.0000000   1.0000000   1.0000000   1.0000000   7.0000000   8.0000000   8.0000000
 Leave Link  101 at Thu May  6 16:10:54 2021, MaxMem=   524288000 cpu:               0.1 elap:               0.1
 (Enter /opt/gaussian/g16_legacy/l202.exe)
                          Input orientation:                          
 ---------------------------------------------------------------------
 Center     Atomic      Atomic             Coordinates (Angstroms)
 Number     Number       Type             X           Y           Z
 ---------------------------------------------------------------------
      1          6           0        1.914143    0.000000    0.000000
      2          6           0        1.214143    1.211000    0.000000
      3          6           0       -0.183857    1.223000    0.000000
      4          6           0       -0.852857    0.000000    0.000000
      5          6           0       -0.183857   -1.223000    0.000000
      6          6           0        1.214143   -1.211000    0.000000
      7          1           0        3.000143    0.000000    0.000000
      8          1           0        1.755143    2.153000    0.000000
      9          1           0       -0.750857    2.146000    0.000000
     10          1           0       -0.750857   -2.146000    0.000000
     11          1           0        1.755143   -2.153000    0.000000
     12          7           0       -2.332857    0.000000    0.000000
     13          8           0       -2.898857   -1.091000    0.000000
     14          8           0       -2.898857    1.091000    0.000000
     15          6           0        1.601655    3.231436   -7.989117
     16          6           0        0.990247    4.389777   -7.498253
     17          6           0        0.781265    4.555269   -6.125851
     18          6           0        1.198014    3.537788   -5.268913
     19          6           0        1.809946    2.372169   -5.727347
     20          6           0        2.008835    2.228098   -7.103659
     21          1           0        1.760077    3.111199   -9.056751
     22          1           0        0.673002    5.170632   -8.183575
     23          1           0        0.310379    5.441839   -5.718817
     24          1           0        2.115408    1.611151   -5.019560
     25          1           0        2.483919    1.327448   -7.482038
     26          7           0        0.982116    3.701648   -3.813943
     27          8           0        1.358377    2.790576   -3.079768
     28          8           0        0.440723    4.738051   -3.435262
 ---------------------------------------------------------------------
                    Distance matrix (angstroms):
                    1          2          3          4          5
     1  C    0.000000
     2  C    1.398757   0.000000
     3  C    2.428443   1.398052   0.000000
     4  C    2.767000   2.395623   1.394019   0.000000
     5  C    2.428443   2.806913   2.446000   1.394019   0.000000
     6  C    1.398757   2.422000   2.806913   2.395623   1.398052
     7  H    1.086000   2.157850   3.410804   3.853000   3.410804
     8  H    2.158863   1.086299   2.150493   3.381874   3.893212
     9  H    3.421628   2.176109   1.083244   2.148423   3.416380
    10  H    3.421628   3.889817   3.416380   2.148423   1.083244
    11  H    2.158863   3.407224   3.893212   3.381874   2.150493
    12  N    4.247000   3.748030   2.472636   1.480000   2.472636
    13  O    4.935104   4.713382   3.567327   2.318706   2.718207
    14  O    4.935104   4.114750   2.718207   2.318706   3.567327
    15  C    8.623562   8.249747   8.428989   8.960625   9.319659
    16  C    8.737707   8.147303   8.223794   8.882059   9.439575
    17  C    7.717509   6.992680   7.039995   7.806848   8.476196
    18  C    6.386723   5.759830   5.918552   6.669592   7.234370
    19  C    6.200044   5.874164   6.172386   6.746867   7.050035
    20  C    7.445492   7.219972   7.502006   7.975943   8.196337
    21  H    9.577475   9.270034   9.453513   9.926315  10.226871
    22  H    9.759445   9.107273   9.126276   9.799724  10.420347
    23  H    8.055466   7.170889   7.123745   7.979448   8.795977
    24  H    5.275632   5.115504   5.534732   6.049991   6.206047
    25  H    7.620214   7.589913   7.944107   8.299222   8.342824
    26  N    5.396020   4.561066   4.695674   5.622765   6.337019
    27  O    4.192990   3.464222   3.784277   4.707636   5.288880
    28  O    6.034991   4.983903   4.954464   5.993622   6.908347
                    6          7          8          9         10
     6  C    0.000000
     7  H    2.157850   0.000000
     8  H    3.407224   2.487053   0.000000
     9  H    3.889817   4.321495   2.506010   0.000000
    10  H    2.176109   4.321495   4.976087   4.292000   0.000000
    11  H    1.086299   2.487053   4.306000   4.976087   2.506010
    12  N    3.748030   5.333000   4.620298   2.666091   2.666091
    13  O    4.114750   5.999040   5.673028   3.884852   2.393100
    14  O    4.713382   5.999040   4.773632   2.393100   3.884852
    15  C    9.149393   8.730632   8.063037   8.398719   9.913482
    16  C    9.361764   8.918162   7.862063   8.018091  10.098100
    17  C    8.423971   7.949839   6.651720   6.758552   9.207630
    18  C    7.093144   6.597352   5.476265   5.787626   7.991557
    19  C    6.782078   6.312389   5.731801   6.277847   7.731369
    20  C    7.932270   7.510598   7.108584   7.621326   8.786956
    21  H   10.050084   9.656193   9.107300   9.447811  10.768829
    22  H   10.391774   9.955999   8.789086   8.840061  11.069389
    23  H    8.819406   8.339863   6.753419   6.685331   9.560669
    24  H    5.828619   5.345516   5.061558   5.804957   6.894029
    25  H    8.002309   7.616397   7.562641   8.192356   8.860559
    26  N    6.223673   5.685138   4.188322   4.468713   7.193354
    27  O    5.051573   4.468521   3.170000   3.788049   6.188992
    28  O    6.913061   6.387549   4.495688   4.465380   7.785310
                   11         12         13         14         15
    11  H    0.000000
    12  N    4.620298   0.000000
    13  O    4.773632   1.229080   0.000000
    14  O    5.673028   1.229080   2.182000   0.000000
    15  C    9.635440   9.473571  10.137261   9.416054   0.000000
    16  C    9.980821   9.302524  10.069153   9.068123   1.398757
    17  C    9.136485   8.244652   9.107673   7.941694   2.428443
    18  C    7.775404   7.262537   8.122283   7.108626   2.767000
    19  C    7.299497   7.456038   8.183451   7.524409   2.428442
    20  C    8.349871   8.618392   9.250072   8.708640   1.398756
    21  H   10.475522  10.414241  11.017662  10.383237   1.086000
    22  H   11.035285  10.136149  10.905829   9.816948   2.158863
    23  H    9.616329   8.324973   9.256460   7.869807   3.421628
    24  H    6.284473   6.897743   7.592131   7.114028   3.421627
    25  H    8.284052   8.996907   9.529116   9.220145   2.158863
    26  N    7.029981   6.263977   7.251040   6.035196   4.247000
    27  O    5.837922   5.558551   6.532660   5.522461   4.935104
    28  O    7.811230   6.476334   7.545307   6.021196   4.935104
                   16         17         18         19         20
    16  C    0.000000
    17  C    1.398052   0.000000
    18  C    2.395623   1.394019   0.000000
    19  C    2.806912   2.446000   1.394019   0.000000
    20  C    2.422000   2.806913   2.395623   1.398052   0.000000
    21  H    2.157850   3.410804   3.853000   3.410804   2.157850
    22  H    1.086299   2.150493   3.381874   3.893211   3.407224
    23  H    2.176108   1.083244   2.148423   3.416379   3.889816
    24  H    3.889816   3.416379   2.148422   1.083244   2.176109
    25  H    3.407224   3.893212   3.381875   2.150493   1.086299
    26  N    3.748030   2.472636   1.480000   2.472637   3.748031
    27  O    4.713382   3.567327   2.318706   2.718208   4.114751
    28  O    4.114750   2.718207   2.318706   3.567327   4.713383
                   21         22         23         24         25
    21  H    0.000000
    22  H    2.487053   0.000000
    23  H    4.321494   2.506009   0.000000
    24  H    4.321495   4.976086   4.292000   0.000000
    25  H    2.487054   4.306000   4.976087   2.506010   0.000000
    26  N    5.333000   4.620298   2.666091   2.666091   4.620299
    27  O    5.999041   5.673028   3.884852   2.393101   4.773633
    28  O    5.999040   4.773631   2.393101   3.884852   5.673029
                   26         27         28
    26  N    0.000000
    27  O    1.229080   0.000000
    28  O    1.229080   2.182000   0.000000
 Stoichiometry    C12H10N2O4
 Framework group  C1[X(C12H10N2O4)]
 Deg. of freedom    78
 Full point group                 C1      NOp   1
 Largest Abelian subgroup         C1      NOp   1
 Largest concise Abelian subgroup C1      NOp   1
                         Standard orientation:                         
 ---------------------------------------------------------------------
 Center     Atomic      Atomic             Coordinates (Angstroms)
 Number     Number       Type             X           Y           Z
 ---------------------------------------------------------------------
      1          6           0        2.675212    2.315944    0.844580
      2          6           0        2.282334    1.134953    1.482880
      3          6           0        2.673435   -0.108815    0.978271
      4          6           0        3.460906   -0.134787   -0.171731
      5          6           0        3.868449    1.024307   -0.830290
      6          6           0        3.465622    2.256956   -0.307935
      7          1           0        2.366840    3.277814    1.243465
      8          1           0        1.668494    1.177730    2.378098
      9          1           0        2.383497   -1.038591    1.452476
     10          1           0        4.480389    0.949699   -1.721009
     11          1           0        3.772226    3.172506   -0.805738
     12          7           0        3.881155   -1.445623   -0.715331
     13          8           0        4.574889   -1.441518   -1.729901
     14          8           0        3.508854   -2.452340   -0.116541
     15          6           0       -5.406100    0.298475   -1.388811
     16          6           0       -5.393427   -0.764682   -0.479934
     17          6           0       -4.282660   -0.984575    0.340061
     18          6           0       -3.196894   -0.117965    0.224345
     19          6           0       -3.179404    0.950017   -0.671422
     20          6           0       -4.300997    1.150928   -1.481492
     21          1           0       -6.273176    0.461920   -2.021947
     22          1           0       -6.250252   -1.428307   -0.405795
     23          1           0       -4.246275   -1.799929    1.052304
     24          1           0       -2.310390    1.594702   -0.722546
     25          1           0       -4.308053    1.977397   -2.186435
     26          7           0       -2.015244   -0.340709    1.087182
     27          8           0       -1.071252    0.437001    0.966004
     28          8           0       -2.055433   -1.288787    1.868316
 ---------------------------------------------------------------------
 Rotational constants (GHZ):           0.7134507           0.1475705           0.1415794
 Leave Link  202 at Thu May  6 16:10:54 2021, MaxMem=   524288000 cpu:               0.0 elap:               0.1
 (Enter /opt/gaussian/g16_legacy/l301.exe)
 Standard basis: 6-31G(d) (6D, 7F)
 Ernie: Thresh=  0.10000D-02 Tol=  0.10000D-05 Strict=F.
 There are   290 symmetry adapted cartesian basis functions of A   symmetry.
 There are   290 symmetry adapted basis functions of A   symmetry.
   290 basis functions,   544 primitive gaussians,   290 cartesian basis functions
    64 alpha electrons       64 beta electrons
       nuclear repulsion energy      1140.7804160717 Hartrees.
 IExCor=    0 DFT=F Ex=HF Corr=None ExCW=0 ScaHFX=  1.000000
 ScaDFX=  1.000000  1.000000  1.000000  1.000000 ScalE2=  1.000000  1.000000
 IRadAn=      5 IRanWt=     -1 IRanGd=            0 ICorTp=0 IEmpDi=  4
 NAtoms=   28 NActive=   28 NUniq=   28 SFac= 1.00D+00 NAtFMM=   60 NAOKFM=F Big=F
 Integral buffers will be    131072 words long.
 Raffenetti 1 integral format.
 Two-electron integral symmetry is turned on.
 Leave Link  301 at Thu May  6 16:10:55 2021, MaxMem=   524288000 cpu:               0.1 elap:               0.1
 (Enter /opt/gaussian/g16_legacy/l302.exe)
 NPDir=0 NMtPBC=     1 NCelOv=     1 NCel=       1 NClECP=     1 NCelD=      1
         NCelK=      1 NCelE2=     1 NClLst=     1 CellRange=     0.0.
 One-electron integrals computed using PRISM.
 One-electron integral symmetry used in STVInt
 NBasis=   290 RedAO= T EigKep=  4.81D-04  NBF=   290
 NBsUse=   290 1.00D-06 EigRej= -1.00D+00 NBFU=   290
 Leave Link  302 at Thu May  6 16:10:55 2021, MaxMem=   524288000 cpu:               0.4 elap:               0.3
 (Enter /opt/gaussian/g16_legacy/l303.exe)
 DipDrv:  MaxL=1.
 Leave Link  303 at Thu May  6 16:10:55 2021, MaxMem=   524288000 cpu:               0.1 elap:               0.0
 (Enter /opt/gaussian/g16_legacy/l401.exe)
 ExpMin= 1.61D-01 ExpMax= 5.48D+03 ExpMxC= 8.25D+02 IAcc=3 IRadAn=         5 AccDes= 0.00D+00
 Harris functional with IExCor=  205 and IRadAn=       5 diagonalized for initial guess.
 HarFok:  IExCor=  205 AccDes= 0.00D+00 IRadAn=         5 IDoV= 1 UseB2=F ITyADJ=14
 ICtDFT=  3500011 ScaDFX=  1.000000  1.000000  1.000000  1.000000
 FoFCou: FMM=F IPFlag=           0 FMFlag=      100000 FMFlg1=           0
         NFxFlg=           0 DoJE=T BraDBF=F KetDBF=T FulRan=T
         wScrn=  0.000000 ICntrl=       500 IOpCl=  0 I1Cent=   200000004 NGrid=           0
         NMat0=    1 NMatS0=      1 NMatT0=    0 NMatD0=    1 NMtDS0=    0 NMtDT0=    0
 Petite list used in FoFCou.
 Harris En= -869.213974963108    
 JPrj=0 DoOrth=F DoCkMO=F.
 Leave Link  401 at Thu May  6 16:10:58 2021, MaxMem=   524288000 cpu:               6.0 elap:               3.0
 (Enter /opt/gaussian/g16_legacy/l502.exe)
 Integral symmetry usage will be decided dynamically.
 Closed shell SCF:
 Using DIIS extrapolation, IDIIS=  1040.
 NGot=   524288000 LenX=   524114954 LenY=   524030413
 Requested convergence on RMS density matrix=1.00D-08 within 128 cycles.
 Requested convergence on MAX density matrix=1.00D-06.
 Requested convergence on             energy=1.00D-06.
 No special actions if energy rises.
 Fock matrices will be formed incrementally for  20 cycles.
 Integral accuracy reduced to 1.0D-05 until final iterations.

 Cycle   1  Pass 0  IDiag  1:
 FoFJK:  IHMeth= 1 ICntrl=       0 DoSepK=F KAlg= 0 I1Cent=           0 FoldK=F
 IRaf= 680000000 NMat=       1 IRICut=       1 DoRegI=T DoRafI=F ISym2E= 0 IDoP0=0 IntGTp=1.
 FoFCou: FMM=F IPFlag=           0 FMFlag=      100000 FMFlg1=           0
         NFxFlg=           0 DoJE=F BraDBF=F KetDBF=F FulRan=T
         wScrn=  0.000000 ICntrl=         0 IOpCl=  0 I1Cent=           0 NGrid=           0
         NMat0=    1 NMatS0=      1 NMatT0=    0 NMatD0=    1 NMtDS0=    0 NMtDT0=    0
 Symmetry not used in FoFCou.
 E= -867.608723083579    
 DIIS: error= 5.81D-02 at cycle   1 NSaved=   1.
 NSaved= 1 IEnMin= 1 EnMin= -867.608723083579     IErMin= 1 ErrMin= 5.81D-02
 ErrMax= 5.81D-02  0.00D+00 EMaxC= 1.00D-01 BMatC= 1.28D+00 BMatP= 1.28D+00
 IDIUse=3 WtCom= 4.19D-01 WtEn= 5.81D-01
 Coeff-Com:  0.100D+01
 Coeff-En:   0.100D+01
 Coeff:      0.100D+01
 Gap=     0.552 Goal=   None    Shift=    0.000
 GapD=    0.552 DampG=2.000 DampE=0.500 DampFc=1.0000 IDamp=-1.
 RMSDP=4.46D-03 MaxDP=8.83D-02              OVMax= 1.53D-01

 Cycle   2  Pass 0  IDiag  1:
 RMSU=  4.36D-03    CP:  9.52D-01
 E= -868.120324055868     Delta-E=       -0.511600972289 Rises=F Damp=F
 DIIS: error= 2.30D-02 at cycle   2 NSaved=   2.
 NSaved= 2 IEnMin= 2 EnMin= -868.120324055868     IErMin= 2 ErrMin= 2.30D-02
 ErrMax= 2.30D-02  0.00D+00 EMaxC= 1.00D-01 BMatC= 2.91D-01 BMatP= 1.28D+00
 IDIUse=3 WtCom= 7.70D-01 WtEn= 2.30D-01
 Coeff-Com:  0.268D+00 0.732D+00
 Coeff-En:   0.000D+00 0.100D+01
 Coeff:      0.207D+00 0.793D+00
 Gap=     0.450 Goal=   None    Shift=    0.000
 RMSDP=1.81D-03 MaxDP=7.95D-02 DE=-5.12D-01 OVMax= 1.19D-01

 Cycle   3  Pass 0  IDiag  1:
 RMSU=  1.60D-03    CP:  9.54D-01  8.04D-01
 E= -868.297463769548     Delta-E=       -0.177139713680 Rises=F Damp=F
 DIIS: error= 1.10D-02 at cycle   3 NSaved=   3.
 NSaved= 3 IEnMin= 3 EnMin= -868.297463769548     IErMin= 3 ErrMin= 1.10D-02
 ErrMax= 1.10D-02  0.00D+00 EMaxC= 1.00D-01 BMatC= 5.57D-02 BMatP= 2.91D-01
 IDIUse=3 WtCom= 8.90D-01 WtEn= 1.10D-01
 Coeff-Com: -0.221D-01 0.285D+00 0.737D+00
 Coeff-En:   0.000D+00 0.216D-01 0.978D+00
 Coeff:     -0.197D-01 0.256D+00 0.764D+00
 Gap=     0.410 Goal=   None    Shift=    0.000
 RMSDP=6.28D-04 MaxDP=2.66D-02 DE=-1.77D-01 OVMax= 4.06D-02

 Cycle   4  Pass 0  IDiag  1:
 RMSU=  3.76D-04    CP:  9.53D-01  8.93D-01  7.98D-01
 E= -868.337217507229     Delta-E=       -0.039753737680 Rises=F Damp=F
 DIIS: error= 2.14D-03 at cycle   4 NSaved=   4.
 NSaved= 4 IEnMin= 4 EnMin= -868.337217507229     IErMin= 4 ErrMin= 2.14D-03
 ErrMax= 2.14D-03  0.00D+00 EMaxC= 1.00D-01 BMatC= 1.97D-03 BMatP= 5.57D-02
 IDIUse=3 WtCom= 9.79D-01 WtEn= 2.14D-02
 Coeff-Com: -0.123D-01 0.443D-01 0.234D+00 0.734D+00
 Coeff-En:   0.000D+00 0.000D+00 0.000D+00 0.100D+01
 Coeff:     -0.120D-01 0.434D-01 0.229D+00 0.740D+00
 Gap=     0.395 Goal=   None    Shift=    0.000
 RMSDP=1.57D-04 MaxDP=4.63D-03 DE=-3.98D-02 OVMax= 8.59D-03

 Cycle   5  Pass 0  IDiag  1:
 RMSU=  1.10D-04    CP:  9.53D-01  8.97D-01  8.56D-01  8.45D-01
 E= -868.339029123702     Delta-E=       -0.001811616473 Rises=F Damp=F
 DIIS: error= 4.58D-04 at cycle   5 NSaved=   5.
 NSaved= 5 IEnMin= 5 EnMin= -868.339029123702     IErMin= 5 ErrMin= 4.58D-04
 ErrMax= 4.58D-04  0.00D+00 EMaxC= 1.00D-01 BMatC= 7.83D-05 BMatP= 1.97D-03
 IDIUse=3 WtCom= 9.95D-01 WtEn= 4.58D-03
 Coeff-Com:  0.189D-02-0.217D-01-0.641D-01 0.544D-02 0.108D+01
 Coeff-En:   0.000D+00 0.000D+00 0.000D+00 0.000D+00 0.100D+01
 Coeff:      0.188D-02-0.216D-01-0.638D-01 0.541D-02 0.108D+01
 Gap=     0.397 Goal=   None    Shift=    0.000
 RMSDP=5.81D-05 MaxDP=1.29D-03 DE=-1.81D-03 OVMax= 4.44D-03

 Cycle   6  Pass 0  IDiag  1:
 RMSU=  2.84D-05    CP:  9.52D-01  9.01D-01  8.67D-01  9.44D-01  1.22D+00
 E= -868.339195967045     Delta-E=       -0.000166843343 Rises=F Damp=F
 DIIS: error= 2.04D-04 at cycle   6 NSaved=   6.
 NSaved= 6 IEnMin= 6 EnMin= -868.339195967045     IErMin= 6 ErrMin= 2.04D-04
 ErrMax= 2.04D-04  0.00D+00 EMaxC= 1.00D-01 BMatC= 1.04D-05 BMatP= 7.83D-05
 IDIUse=3 WtCom= 9.98D-01 WtEn= 2.04D-03
 Coeff-Com:  0.131D-02-0.721D-02-0.312D-01-0.654D-01 0.882D-01 0.101D+01
 Coeff-En:   0.000D+00 0.000D+00 0.000D+00 0.000D+00 0.000D+00 0.100D+01
 Coeff:      0.131D-02-0.719D-02-0.311D-01-0.653D-01 0.880D-01 0.101D+01
 Gap=     0.397 Goal=   None    Shift=    0.000
 RMSDP=2.30D-05 MaxDP=6.27D-04 DE=-1.67D-04 OVMax= 1.80D-03

 Cycle   7  Pass 0  IDiag  1:
 RMSU=  1.07D-05    CP:  9.52D-01  9.02D-01  8.71D-01  9.65D-01  1.37D+00
                    CP:  1.26D+00
 E= -868.339226292466     Delta-E=       -0.000030325421 Rises=F Damp=F
 DIIS: error= 1.56D-04 at cycle   7 NSaved=   7.
 NSaved= 7 IEnMin= 7 EnMin= -868.339226292466     IErMin= 7 ErrMin= 1.56D-04
 ErrMax= 1.56D-04  0.00D+00 EMaxC= 1.00D-01 BMatC= 2.07D-06 BMatP= 1.04D-05
 IDIUse=3 WtCom= 9.98D-01 WtEn= 1.56D-03
 Coeff-Com: -0.155D-03 0.238D-02 0.638D-02-0.147D-02-0.144D+00 0.518D-01
 Coeff-Com:  0.109D+01
 Coeff-En:   0.000D+00 0.000D+00 0.000D+00 0.000D+00 0.000D+00 0.000D+00
 Coeff-En:   0.100D+01
 Coeff:     -0.155D-03 0.237D-02 0.637D-02-0.147D-02-0.144D+00 0.518D-01
 Coeff:      0.108D+01
 Gap=     0.397 Goal=   None    Shift=    0.000
 RMSDP=1.08D-05 MaxDP=3.11D-04 DE=-3.03D-05 OVMax= 1.31D-03

 Cycle   8  Pass 0  IDiag  1:
 RMSU=  5.47D-06    CP:  9.52D-01  9.02D-01  8.70D-01  9.72D-01  1.40D+00
                    CP:  1.50D+00  1.34D+00
 E= -868.339234350975     Delta-E=       -0.000008058508 Rises=F Damp=F
 DIIS: error= 6.50D-05 at cycle   8 NSaved=   8.
 NSaved= 8 IEnMin= 8 EnMin= -868.339234350975     IErMin= 8 ErrMin= 6.50D-05
 ErrMax= 6.50D-05  0.00D+00 EMaxC= 1.00D-01 BMatC= 5.53D-07 BMatP= 2.07D-06
 IDIUse=1 WtCom= 1.00D+00 WtEn= 0.00D+00
 Coeff-Com: -0.328D-03 0.212D-02 0.848D-02 0.165D-01-0.418D-01-0.234D+00
 Coeff-Com:  0.124D+00 0.112D+01
 Coeff:     -0.328D-03 0.212D-02 0.848D-02 0.165D-01-0.418D-01-0.234D+00
 Coeff:      0.124D+00 0.112D+01
 Gap=     0.397 Goal=   None    Shift=    0.000
 RMSDP=6.73D-06 MaxDP=1.62D-04 DE=-8.06D-06 OVMax= 7.62D-04

 Initial convergence to 1.0D-05 achieved.  Increase integral accuracy.
 Cycle   9  Pass 1  IDiag  1:
 E= -868.339231318351     Delta-E=        0.000003032623 Rises=F Damp=F
 DIIS: error= 3.62D-05 at cycle   1 NSaved=   1.
 NSaved= 1 IEnMin= 1 EnMin= -868.339231318351     IErMin= 1 ErrMin= 3.62D-05
 ErrMax= 3.62D-05  0.00D+00 EMaxC= 1.00D-01 BMatC= 2.74D-07 BMatP= 2.74D-07
 IDIUse=1 WtCom= 1.00D+00 WtEn= 0.00D+00
 Coeff-Com:  0.100D+01
 Coeff:      0.100D+01
 Gap=     0.397 Goal=   None    Shift=    0.000
 RMSDP=6.73D-06 MaxDP=1.62D-04 DE= 3.03D-06 OVMax= 2.26D-04

 Cycle  10  Pass 1  IDiag  1:
 RMSU=  1.43D-05    CP:  1.00D+00
 E= -868.339231763534     Delta-E=       -0.000000445183 Rises=F Damp=F
 DIIS: error= 1.69D-05 at cycle   2 NSaved=   2.
 NSaved= 2 IEnMin= 2 EnMin= -868.339231763534     IErMin= 2 ErrMin= 1.69D-05
 ErrMax= 1.69D-05  0.00D+00 EMaxC= 1.00D-01 BMatC= 6.18D-08 BMatP= 2.74D-07
 IDIUse=1 WtCom= 1.00D+00 WtEn= 0.00D+00
 Coeff-Com:  0.148D+00 0.852D+00
 Coeff:      0.148D+00 0.852D+00
 Gap=     0.397 Goal=   None    Shift=    0.000
 RMSDP=1.36D-06 MaxDP=4.86D-05 DE=-4.45D-07 OVMax= 1.11D-04

 Cycle  11  Pass 1  IDiag  1:
 RMSU=  1.22D-06    CP:  1.00D+00  1.04D+00
 E= -868.339231892279     Delta-E=       -0.000000128745 Rises=F Damp=F
 DIIS: error= 1.42D-05 at cycle   3 NSaved=   3.
 NSaved= 3 IEnMin= 3 EnMin= -868.339231892279     IErMin= 3 ErrMin= 1.42D-05
 ErrMax= 1.42D-05  0.00D+00 EMaxC= 1.00D-01 BMatC= 2.97D-08 BMatP= 6.18D-08
 IDIUse=1 WtCom= 1.00D+00 WtEn= 0.00D+00
 Coeff-Com: -0.126D+00 0.312D+00 0.813D+00
 Coeff:     -0.126D+00 0.312D+00 0.813D+00
 Gap=     0.397 Goal=   None    Shift=    0.000
 RMSDP=9.14D-07 MaxDP=2.02D-05 DE=-1.29D-07 OVMax= 1.00D-04

 Cycle  12  Pass 1  IDiag  1:
 RMSU=  7.83D-07    CP:  1.00D+00  1.06D+00  1.28D+00
 E= -868.339231969813     Delta-E=       -0.000000077534 Rises=F Damp=F
 DIIS: error= 8.19D-06 at cycle   4 NSaved=   4.
 NSaved= 4 IEnMin= 4 EnMin= -868.339231969813     IErMin= 4 ErrMin= 8.19D-06
 ErrMax= 8.19D-06  0.00D+00 EMaxC= 1.00D-01 BMatC= 6.69D-09 BMatP= 2.97D-08
 IDIUse=1 WtCom= 1.00D+00 WtEn= 0.00D+00
 Coeff-Com:  0.138D-01-0.523D+00-0.503D+00 0.201D+01
 Coeff:      0.138D-01-0.523D+00-0.503D+00 0.201D+01
 Gap=     0.397 Goal=   None    Shift=    0.000
 RMSDP=1.32D-06 MaxDP=2.76D-05 DE=-7.75D-08 OVMax= 1.65D-04

 Cycle  13  Pass 1  IDiag  1:
 RMSU=  2.22D-07    CP:  1.00D+00  1.07D+00  2.08D+00  2.09D+00
 E= -868.339232018932     Delta-E=       -0.000000049119 Rises=F Damp=F
 DIIS: error= 1.21D-06 at cycle   5 NSaved=   5.
 NSaved= 5 IEnMin= 5 EnMin= -868.339232018932     IErMin= 5 ErrMin= 1.21D-06
 ErrMax= 1.21D-06  0.00D+00 EMaxC= 1.00D-01 BMatC= 3.03D-10 BMatP= 6.69D-09
 IDIUse=1 WtCom= 1.00D+00 WtEn= 0.00D+00
 Coeff-Com:  0.121D-01-0.149D+00-0.178D+00 0.489D+00 0.825D+00
 Coeff:      0.121D-01-0.149D+00-0.178D+00 0.489D+00 0.825D+00
 Gap=     0.397 Goal=   None    Shift=    0.000
 RMSDP=1.46D-07 MaxDP=3.06D-06 DE=-4.91D-08 OVMax= 1.80D-05

 Cycle  14  Pass 1  IDiag  1:
 RMSU=  7.04D-08    CP:  1.00D+00  1.07D+00  2.15D+00  2.21D+00  1.10D+00
 E= -868.339232019770     Delta-E=       -0.000000000838 Rises=F Damp=F
 DIIS: error= 3.77D-07 at cycle   6 NSaved=   6.
 NSaved= 6 IEnMin= 6 EnMin= -868.339232019770     IErMin= 6 ErrMin= 3.77D-07
 ErrMax= 3.77D-07  0.00D+00 EMaxC= 1.00D-01 BMatC= 3.28D-11 BMatP= 3.03D-10
 IDIUse=1 WtCom= 1.00D+00 WtEn= 0.00D+00
 Coeff-Com: -0.263D-02 0.720D-01 0.729D-01-0.269D+00-0.754D-01 0.120D+01
 Coeff:     -0.263D-02 0.720D-01 0.729D-01-0.269D+00-0.754D-01 0.120D+01
 Gap=     0.397 Goal=   None    Shift=    0.000
 RMSDP=5.17D-08 MaxDP=1.28D-06 DE=-8.38D-10 OVMax= 5.26D-06

 Cycle  15  Pass 1  IDiag  1:
 RMSU=  2.82D-08    CP:  1.00D+00  1.07D+00  2.16D+00  2.22D+00  1.27D+00
                    CP:  1.26D+00
 E= -868.339232019846     Delta-E=       -0.000000000076 Rises=F Damp=F
 DIIS: error= 1.55D-07 at cycle   7 NSaved=   7.
 NSaved= 7 IEnMin= 7 EnMin= -868.339232019846     IErMin= 7 ErrMin= 1.55D-07
 ErrMax= 1.55D-07  0.00D+00 EMaxC= 1.00D-01 BMatC= 6.42D-12 BMatP= 3.28D-11
 IDIUse=1 WtCom= 1.00D+00 WtEn= 0.00D+00
 Coeff-Com: -0.276D-02 0.475D-01 0.523D-01-0.167D+00-0.147D+00 0.395D+00
 Coeff-Com:  0.823D+00
 Coeff:     -0.276D-02 0.475D-01 0.523D-01-0.167D+00-0.147D+00 0.395D+00
 Coeff:      0.823D+00
 Gap=     0.397 Goal=   None    Shift=    0.000
 RMSDP=1.67D-08 MaxDP=4.47D-07 DE=-7.62D-11 OVMax= 1.11D-06

 Cycle  16  Pass 1  IDiag  1:
 RMSU=  8.24D-09    CP:  1.00D+00  1.07D+00  2.16D+00  2.22D+00  1.31D+00
                    CP:  1.42D+00  1.14D+00
 E= -868.339232019849     Delta-E=       -0.000000000003 Rises=F Damp=F
 DIIS: error= 2.49D-08 at cycle   8 NSaved=   8.
 NSaved= 8 IEnMin= 8 EnMin= -868.339232019849     IErMin= 8 ErrMin= 2.49D-08
 ErrMax= 2.49D-08  0.00D+00 EMaxC= 1.00D-01 BMatC= 2.66D-13 BMatP= 6.42D-12
 IDIUse=1 WtCom= 1.00D+00 WtEn= 0.00D+00
 Coeff-Com: -0.328D-03 0.394D-02 0.477D-02-0.132D-01-0.199D-01-0.270D-02
 Coeff-Com:  0.153D+00 0.874D+00
 Coeff:     -0.328D-03 0.394D-02 0.477D-02-0.132D-01-0.199D-01-0.270D-02
 Coeff:      0.153D+00 0.874D+00
 Gap=     0.397 Goal=   None    Shift=    0.000
 RMSDP=2.87D-09 MaxDP=7.52D-08 DE=-2.96D-12 OVMax= 2.60D-07

 SCF Done:  E(RHF) =  -868.339232020     A.U. after   16 cycles
            NFock= 16  Conv=0.29D-08     -V/T= 2.0031
 KE= 8.656971035963D+02 PE=-4.315098487788D+03 EE= 1.440281736100D+03
 Leave Link  502 at Thu May  6 16:11:30 2021, MaxMem=   524288000 cpu:              63.3 elap:              31.7
 (Enter /opt/gaussian/g16_legacy/l801.exe)
 ExpMin= 1.61D-01 ExpMax= 5.48D+03 ExpMxC= 8.25D+02 IAcc=3 IRadAn=         5 AccDes= 0.00D+00
 HarFok:  IExCor=  205 AccDes= 0.00D+00 IRadAn=         5 IDoV=-2 UseB2=F ITyADJ=14
 ICtDFT= 12500011 ScaDFX=  1.000000  1.000000  1.000000  1.000000
 Largest valence mixing into a core orbital is  1.95D-04
 Largest core mixing into a valence orbital is  4.00D-05
 Range of M.O.s used for correlation:    19   290
 NBasis=   290 NAE=    64 NBE=    64 NFC=    18 NFV=     0
 NROrb=    272 NOA=    46 NOB=    46 NVA=   226 NVB=   226
 Leave Link  801 at Thu May  6 16:11:31 2021, MaxMem=   524288000 cpu:               1.0 elap:               0.6
 (Enter /opt/gaussian/g16_legacy/l906.exe)
 FulOut=F Deriv=F AODrv=F NAtomX=    28
   MMem=          85  MDisk=          46 MDiskD=          46
  W3Min=     3014840 MinDsk=     3114491 NBas6D=         290
 NBas2D=       42681    NTT=       42195    LW2=     2000000
    MDV=   523944647 MDiskM=       24997 NBas2p=       27662
 Fully direct method using O(OVN) memory.
 IMap=   1   2   3   4   5   6   7   8   9  10  11  12  13  14  15  16  17  18  19  20
 IMap=  21  22  23  24  25  26  27  28  29  30  31  32  33  34  35  36  37  38  39  40
 IMap=  41  42  43  44  45  46
 JobTyp=1 Pass  1:  I=   1 to  46 NPSUse=  2 ParTrn=T ParDer=T DoDerP=F.
 Spin components of T(2) and E(2):
     alpha-alpha T2 =       0.1269493411D+00 E2=     -0.3594501058D+00
     alpha-beta  T2 =       0.6473523049D+00 E2=     -0.1880346413D+01
     beta-beta   T2 =       0.1269493411D+00 E2=     -0.3594501058D+00
 The integrals were generated   1 times.
 ANorm=    0.1378858581D+01
 E2 =    -0.2599246624D+01 EUMP2 =    -0.87093847864402D+03
 Leave Link  906 at Thu May  6 16:13:35 2021, MaxMem=   524288000 cpu:             247.5 elap:             124.2
 (Enter /opt/gaussian/g16_legacy/l601.exe)
 Copying SCF densities to generalized density rwf, IOpCl= 0 IROHF=0.

 **********************************************************************

            Population analysis using the SCF density.

 **********************************************************************

 Orbital symmetries:
       Occupied  (A) (A) (A) (A) (A) (A) (A) (A) (A) (A) (A) (A)
                 (A) (A) (A) (A) (A) (A) (A) (A) (A) (A) (A) (A)
                 (A) (A) (A) (A) (A) (A) (A) (A) (A) (A) (A) (A)
                 (A) (A) (A) (A) (A) (A) (A) (A) (A) (A) (A) (A)
                 (A) (A) (A) (A) (A) (A) (A) (A) (A) (A) (A) (A)
                 (A) (A) (A) (A)
       Virtual   (A) (A) (A) (A) (A) (A) (A) (A) (A) (A) (A) (A)
                 (A) (A) (A) (A) (A) (A) (A) (A) (A) (A) (A) (A)
                 (A) (A) (A) (A) (A) (A) (A) (A) (A) (A) (A) (A)
                 (A) (A) (A) (A) (A) (A) (A) (A) (A) (A) (A) (A)
                 (A) (A) (A) (A) (A) (A) (A) (A) (A) (A) (A) (A)
                 (A) (A) (A) (A) (A) (A) (A) (A) (A) (A) (A) (A)
                 (A) (A) (A) (A) (A) (A) (A) (A) (A) (A) (A) (A)
                 (A) (A) (A) (A) (A) (A) (A) (A) (A) (A) (A) (A)
                 (A) (A) (A) (A) (A) (A) (A) (A) (A) (A) (A) (A)
                 (A) (A) (A) (A) (A) (A) (A) (A) (A) (A) (A) (A)
                 (A) (A) (A) (A) (A) (A) (A) (A) (A) (A) (A) (A)
                 (A) (A) (A) (A) (A) (A) (A) (A) (A) (A) (A) (A)
                 (A) (A) (A) (A) (A) (A) (A) (A) (A) (A) (A) (A)
                 (A) (A) (A) (A) (A) (A) (A) (A) (A) (A) (A) (A)
                 (A) (A) (A) (A) (A) (A) (A) (A) (A) (A) (A) (A)
                 (A) (A) (A) (A) (A) (A) (A) (A) (A) (A) (A) (A)
                 (A) (A) (A) (A) (A) (A) (A) (A) (A) (A) (A) (A)
                 (A) (A) (A) (A) (A) (A) (A) (A) (A) (A) (A) (A)
                 (A) (A) (A) (A) (A) (A) (A) (A) (A) (A)
 The electronic state is 1-A.
 Alpha  occ. eigenvalues --  -20.61341 -20.61319 -20.59877 -20.59856 -15.86357
 Alpha  occ. eigenvalues --  -15.84910 -11.31543 -11.30062 -11.28107 -11.28077
 Alpha  occ. eigenvalues --  -11.27803 -11.27076 -11.27053 -11.26663 -11.26450
 Alpha  occ. eigenvalues --  -11.26314 -11.25713 -11.25411  -1.60401  -1.58949
 Alpha  occ. eigenvalues --   -1.39958  -1.38506  -1.19701  -1.18202  -1.09132
 Alpha  occ. eigenvalues --   -1.07658  -1.05078  -1.03545  -0.95998  -0.94527
 Alpha  occ. eigenvalues --   -0.86485  -0.84978  -0.82837  -0.81346  -0.77903
 Alpha  occ. eigenvalues --   -0.76414  -0.72598  -0.71699  -0.71138  -0.70809
 Alpha  occ. eigenvalues --   -0.70267  -0.69348  -0.65359  -0.65083  -0.63855
 Alpha  occ. eigenvalues --   -0.63552  -0.62429  -0.60894  -0.55588  -0.54124
 Alpha  occ. eigenvalues --   -0.53414  -0.53170  -0.51922  -0.51643  -0.49360
 Alpha  occ. eigenvalues --   -0.49332  -0.47901  -0.47874  -0.45399  -0.43958
 Alpha  occ. eigenvalues --   -0.37669  -0.36672  -0.36213  -0.35075
 Alpha virt. eigenvalues --    0.04615   0.06089   0.10986   0.12522   0.16147
 Alpha virt. eigenvalues --    0.17635   0.21138   0.22571   0.27052   0.28008
 Alpha virt. eigenvalues --    0.28594   0.29377   0.30714   0.32075   0.32240
 Alpha virt. eigenvalues --    0.33782   0.34011   0.35466   0.36441   0.37888
 Alpha virt. eigenvalues --    0.42948   0.44026   0.44430   0.45500   0.45869
 Alpha virt. eigenvalues --    0.47433   0.48653   0.50204   0.50703   0.52176
 Alpha virt. eigenvalues --    0.56010   0.57786   0.66651   0.68398   0.68491
 Alpha virt. eigenvalues --    0.69955   0.70033   0.71514   0.71535   0.72731
 Alpha virt. eigenvalues --    0.76939   0.77585   0.78644   0.79022   0.79230
 Alpha virt. eigenvalues --    0.79538   0.79901   0.80140   0.80329   0.80568
 Alpha virt. eigenvalues --    0.80891   0.81608   0.81819   0.83035   0.85556
 Alpha virt. eigenvalues --    0.86923   0.87375   0.87652   0.88467   0.88899
 Alpha virt. eigenvalues --    0.93429   0.94577   0.96284   0.97087   1.00119
 Alpha virt. eigenvalues --    1.01484   1.02664   1.02845   1.05077   1.05536
 Alpha virt. eigenvalues --    1.07169   1.07811   1.08184   1.08437   1.08782
 Alpha virt. eigenvalues --    1.09731   1.09923   1.09999   1.14368   1.15610
 Alpha virt. eigenvalues --    1.16330   1.16814   1.17619   1.18827   1.19983
 Alpha virt. eigenvalues --    1.20930   1.22824   1.23342   1.24473   1.24777
 Alpha virt. eigenvalues --    1.26960   1.27958   1.28802   1.29318   1.30274
 Alpha virt. eigenvalues --    1.30981   1.32222   1.32497   1.34393   1.35397
 Alpha virt. eigenvalues --    1.39983   1.42530   1.46161   1.46748   1.48154
 Alpha virt. eigenvalues --    1.48281   1.52110   1.53170   1.53542   1.54466
 Alpha virt. eigenvalues --    1.60236   1.61325   1.64918   1.66226   1.66375
 Alpha virt. eigenvalues --    1.66812   1.67209   1.67814   1.68331   1.69094
 Alpha virt. eigenvalues --    1.72210   1.72980   1.73093   1.73760   1.74475
 Alpha virt. eigenvalues --    1.74530   1.75205   1.76740   1.97004   1.97908
 Alpha virt. eigenvalues --    1.98830   1.99565   2.00314   2.00891   2.04091
 Alpha virt. eigenvalues --    2.04198   2.05545   2.05755   2.09490   2.10923
 Alpha virt. eigenvalues --    2.11988   2.12766   2.13481   2.14287   2.21212
 Alpha virt. eigenvalues --    2.21246   2.22700   2.22817   2.24228   2.25701
 Alpha virt. eigenvalues --    2.26796   2.28511   2.32484   2.34016   2.35764
 Alpha virt. eigenvalues --    2.37103   2.37475   2.38760   2.42572   2.42964
 Alpha virt. eigenvalues --    2.44140   2.44203   2.44443   2.45289   2.45846
 Alpha virt. eigenvalues --    2.46442   2.47167   2.47925   2.57733   2.58252
 Alpha virt. eigenvalues --    2.59194   2.59291   2.59809   2.60799   2.69775
 Alpha virt. eigenvalues --    2.71243   2.80955   2.82472   2.83022   2.84462
 Alpha virt. eigenvalues --    2.91365   2.91572   2.91876   2.92850   2.93062
 Alpha virt. eigenvalues --    2.93420   2.99454   3.00951   3.04241   3.04449
 Alpha virt. eigenvalues --    3.05695   3.05965   3.06521   3.08045   3.09946
 Alpha virt. eigenvalues --    3.11424   3.23413   3.24526   3.25010   3.25490
 Alpha virt. eigenvalues --    3.28560   3.29160   3.42985   3.44028   3.52486
 Alpha virt. eigenvalues --    3.53975   3.76633   3.78144   4.12594   4.13879
 Alpha virt. eigenvalues --    4.28234   4.29523   4.37544   4.38771   4.47612
 Alpha virt. eigenvalues --    4.49355   4.50352   4.52096   4.52983   4.54100
 Alpha virt. eigenvalues --    4.71566   4.73317   4.76323   4.78170   5.08609
 Alpha virt. eigenvalues --    5.10255
          Condensed to atoms (all electrons):
               1          2          3          4          5          6
     1  C    4.882293   0.542880  -0.045256  -0.028684  -0.046208   0.540700
     2  C    0.542880   4.911234   0.524655  -0.039281  -0.030133  -0.043482
     3  C   -0.045256   0.524655   4.912144   0.546692  -0.052689  -0.029927
     4  C   -0.028684  -0.039281   0.546692   4.827350   0.547852  -0.040934
     5  C   -0.046208  -0.030133  -0.052689   0.547852   4.921957   0.524952
     6  C    0.540700  -0.043482  -0.029927  -0.040934   0.524952   4.934838
     7  H    0.381608  -0.027521   0.002202   0.000228   0.002193  -0.029255
     8  H   -0.028035   0.381227  -0.025000   0.001577   0.000208   0.002316
     9  H    0.001939  -0.022524   0.368901  -0.021263   0.002503  -0.000047
    10  H    0.001935  -0.000067   0.002537  -0.019882   0.369259  -0.024578
    11  H   -0.028173   0.002322   0.000195   0.001589  -0.027940   0.382884
    12  N    0.000012   0.001532  -0.044300   0.244359  -0.045095   0.001490
    13  O   -0.000003  -0.000030   0.003659  -0.088074   0.004001   0.000772
    14  O   -0.000004   0.000751   0.003656  -0.087439   0.003716  -0.000027
    15  C    0.000000   0.000000   0.000000  -0.000000  -0.000000   0.000000
    16  C   -0.000000  -0.000000   0.000000   0.000000  -0.000000  -0.000000
    17  C   -0.000000  -0.000000  -0.000000   0.000000   0.000000   0.000000
    18  C   -0.000000  -0.000001  -0.000000   0.000000   0.000000   0.000000
    19  C   -0.000000  -0.000001   0.000000   0.000000  -0.000000  -0.000000
    20  C   -0.000000  -0.000000  -0.000000   0.000000  -0.000000  -0.000000
    21  H    0.000000   0.000000   0.000000  -0.000000  -0.000000   0.000000
    22  H    0.000000   0.000000   0.000000  -0.000000  -0.000000  -0.000000
    23  H    0.000000   0.000000   0.000000  -0.000000  -0.000000   0.000000
    24  H    0.000003   0.000005   0.000000  -0.000000  -0.000000   0.000000
    25  H   -0.000000  -0.000000  -0.000000   0.000000   0.000000  -0.000000
    26  N    0.000007   0.000089   0.000038  -0.000001  -0.000000  -0.000000
    27  O   -0.000044  -0.000005   0.000238  -0.000004   0.000001  -0.000001
    28  O   -0.000000  -0.000003  -0.000003   0.000000   0.000000  -0.000000
               7          8          9         10         11         12
     1  C    0.381608  -0.028035   0.001939   0.001935  -0.028173   0.000012
     2  C   -0.027521   0.381227  -0.022524  -0.000067   0.002322   0.001532
     3  C    0.002202  -0.025000   0.368901   0.002537   0.000195  -0.044300
     4  C    0.000228   0.001577  -0.021263  -0.019882   0.001589   0.244359
     5  C    0.002193   0.000208   0.002503   0.369259  -0.027940  -0.045095
     6  C   -0.029255   0.002316  -0.000047  -0.024578   0.382884   0.001490
     7  H    0.452404  -0.001216  -0.000072  -0.000073  -0.001234   0.000003
     8  H   -0.001216   0.437393  -0.001121   0.000007  -0.000092  -0.000049
     9  H   -0.000072  -0.001121   0.389126  -0.000075   0.000007  -0.005233
    10  H   -0.000073   0.000007  -0.000075   0.397900  -0.001154  -0.005382
    11  H   -0.001234  -0.000092   0.000007  -0.001154   0.454455  -0.000050
    12  N    0.000003  -0.000049  -0.005233  -0.005382  -0.000050   5.734631
    13  O    0.000000   0.000000   0.000046   0.009071  -0.000001   0.314578
    14  O    0.000000  -0.000001   0.008722   0.000048   0.000000   0.315599
    15  C    0.000000   0.000000   0.000000   0.000000  -0.000000  -0.000000
    16  C   -0.000000   0.000000  -0.000000  -0.000000   0.000000   0.000000
    17  C    0.000000  -0.000000  -0.000000  -0.000000  -0.000000   0.000000
    18  C   -0.000000   0.000004   0.000000  -0.000000  -0.000000  -0.000000
    19  C    0.000000  -0.000001  -0.000000  -0.000000   0.000000   0.000000
    20  C    0.000000  -0.000000   0.000000   0.000000   0.000000  -0.000000
    21  H   -0.000000   0.000000  -0.000000  -0.000000  -0.000000  -0.000000
    22  H    0.000000  -0.000000  -0.000000   0.000000  -0.000000   0.000000
    23  H   -0.000000   0.000000  -0.000000  -0.000000  -0.000000   0.000000
    24  H    0.000000  -0.000000  -0.000000  -0.000000  -0.000000  -0.000000
    25  H   -0.000000  -0.000000  -0.000000   0.000000  -0.000000   0.000000
    26  N    0.000000  -0.000030   0.000005   0.000000  -0.000000   0.000000
    27  O   -0.000003   0.000994   0.000041   0.000000   0.000000  -0.000000
    28  O   -0.000000   0.000003   0.000010   0.000000  -0.000000  -0.000000
              13         14         15         16         17         18
     1  C   -0.000003  -0.000004   0.000000  -0.000000  -0.000000  -0.000000
     2  C   -0.000030   0.000751   0.000000  -0.000000  -0.000000  -0.000001
     3  C    0.003659   0.003656   0.000000   0.000000  -0.000000  -0.000000
     4  C   -0.088074  -0.087439  -0.000000   0.000000   0.000000   0.000000
     5  C    0.004001   0.003716  -0.000000  -0.000000   0.000000   0.000000
     6  C    0.000772  -0.000027   0.000000  -0.000000   0.000000   0.000000
     7  H    0.000000   0.000000   0.000000  -0.000000   0.000000  -0.000000
     8  H    0.000000  -0.000001   0.000000   0.000000  -0.000000   0.000004
     9  H    0.000046   0.008722   0.000000  -0.000000  -0.000000   0.000000
    10  H    0.009071   0.000048   0.000000  -0.000000  -0.000000  -0.000000
    11  H   -0.000001   0.000000  -0.000000   0.000000  -0.000000  -0.000000
    12  N    0.314578   0.315599  -0.000000   0.000000   0.000000  -0.000000
    13  O    8.309036  -0.087552   0.000000  -0.000000   0.000000  -0.000000
    14  O   -0.087552   8.302868   0.000000   0.000000  -0.000000   0.000000
    15  C    0.000000   0.000000   4.875188   0.542384  -0.045680  -0.028612
    16  C   -0.000000   0.000000   0.542384   4.931388   0.523395  -0.040171
    17  C    0.000000  -0.000000  -0.045680   0.523395   4.917480   0.548610
    18  C   -0.000000   0.000000  -0.028612  -0.040171   0.548610   4.821600
    19  C   -0.000000  -0.000000  -0.045700  -0.030052  -0.053100   0.548051
    20  C   -0.000000  -0.000000   0.542422  -0.043828  -0.030042  -0.040186
    21  H    0.000000   0.000000   0.381238  -0.027836   0.002167   0.000221
    22  H    0.000000  -0.000000  -0.027552   0.382499  -0.027225   0.001559
    23  H    0.000000  -0.000000   0.001920  -0.023834   0.368549  -0.019736
    24  H    0.000000   0.000000   0.001933  -0.000059   0.002551  -0.019915
    25  H   -0.000000  -0.000000  -0.027533   0.002329   0.000203   0.001564
    26  N    0.000000   0.000000   0.000007   0.001507  -0.044393   0.243722
    27  O   -0.000000  -0.000000  -0.000004  -0.000027   0.003671  -0.087244
    28  O   -0.000000  -0.000000  -0.000004   0.000765   0.003810  -0.087604
              19         20         21         22         23         24
     1  C   -0.000000  -0.000000   0.000000   0.000000   0.000000   0.000003
     2  C   -0.000001  -0.000000   0.000000   0.000000   0.000000   0.000005
     3  C    0.000000  -0.000000   0.000000   0.000000   0.000000   0.000000
     4  C    0.000000   0.000000  -0.000000  -0.000000  -0.000000  -0.000000
     5  C   -0.000000  -0.000000  -0.000000  -0.000000  -0.000000  -0.000000
     6  C   -0.000000  -0.000000   0.000000  -0.000000   0.000000   0.000000
     7  H    0.000000   0.000000  -0.000000   0.000000  -0.000000   0.000000
     8  H   -0.000001  -0.000000   0.000000  -0.000000   0.000000  -0.000000
     9  H   -0.000000   0.000000  -0.000000  -0.000000  -0.000000  -0.000000
    10  H   -0.000000   0.000000  -0.000000   0.000000  -0.000000  -0.000000
    11  H    0.000000   0.000000  -0.000000  -0.000000  -0.000000  -0.000000
    12  N    0.000000  -0.000000  -0.000000   0.000000   0.000000  -0.000000
    13  O   -0.000000  -0.000000   0.000000   0.000000   0.000000   0.000000
    14  O   -0.000000  -0.000000   0.000000  -0.000000  -0.000000   0.000000
    15  C   -0.045700   0.542422   0.381238  -0.027552   0.001920   0.001933
    16  C   -0.030052  -0.043828  -0.027836   0.382499  -0.023834  -0.000059
    17  C   -0.053100  -0.030042   0.002167  -0.027225   0.368549   0.002551
    18  C    0.548051  -0.040186   0.000221   0.001559  -0.019736  -0.019915
    19  C    4.918472   0.523458   0.002167   0.000207   0.002537   0.368822
    20  C    0.523458   4.931488  -0.027919   0.002323  -0.000056  -0.024075
    21  H    0.002167  -0.027919   0.445514  -0.001184  -0.000071  -0.000071
    22  H    0.000207   0.002323  -0.001184   0.445610  -0.001102   0.000007
    23  H    0.002537  -0.000056  -0.000071  -0.001102   0.391614  -0.000075
    24  H    0.368822  -0.024075  -0.000071   0.000007  -0.000075   0.394112
    25  H   -0.027422   0.382564  -0.001189  -0.000093   0.000007  -0.001120
    26  N   -0.044509   0.001498   0.000002  -0.000049  -0.005322  -0.005320
    27  O    0.003818   0.000763   0.000000   0.000000   0.000045   0.008875
    28  O    0.003710  -0.000028   0.000000  -0.000001   0.008803   0.000046
              25         26         27         28
     1  C   -0.000000   0.000007  -0.000044  -0.000000
     2  C   -0.000000   0.000089  -0.000005  -0.000003
     3  C   -0.000000   0.000038   0.000238  -0.000003
     4  C    0.000000  -0.000001  -0.000004   0.000000
     5  C    0.000000  -0.000000   0.000001   0.000000
     6  C   -0.000000  -0.000000  -0.000001  -0.000000
     7  H   -0.000000   0.000000  -0.000003  -0.000000
     8  H   -0.000000  -0.000030   0.000994   0.000003
     9  H   -0.000000   0.000005   0.000041   0.000010
    10  H    0.000000   0.000000   0.000000   0.000000
    11  H   -0.000000  -0.000000   0.000000  -0.000000
    12  N    0.000000   0.000000  -0.000000  -0.000000
    13  O   -0.000000   0.000000  -0.000000  -0.000000
    14  O   -0.000000   0.000000  -0.000000  -0.000000
    15  C   -0.027533   0.000007  -0.000004  -0.000004
    16  C    0.002329   0.001507  -0.000027   0.000765
    17  C    0.000203  -0.044393   0.003671   0.003810
    18  C    0.001564   0.243722  -0.087244  -0.087604
    19  C   -0.027422  -0.044509   0.003818   0.003710
    20  C    0.382564   0.001498   0.000763  -0.000028
    21  H   -0.001189   0.000002   0.000000   0.000000
    22  H   -0.000093  -0.000049   0.000000  -0.000001
    23  H    0.000007  -0.005322   0.000045   0.008803
    24  H   -0.001120  -0.005320   0.008875   0.000046
    25  H    0.446782  -0.000049  -0.000001   0.000000
    26  N   -0.000049   5.737640   0.309036   0.315020
    27  O   -0.000001   0.309036   8.316307  -0.087856
    28  O    0.000000   0.315020  -0.087856   8.302166
 Mulliken charges:
               1
     1  C   -0.174970
     2  C   -0.201648
     3  C   -0.167743
     4  C    0.155915
     5  C   -0.174576
     6  C   -0.219700
     7  H    0.220736
     8  H    0.231816
     9  H    0.279036
    10  H    0.270456
    11  H    0.217192
    12  N    0.487907
    13  O   -0.465504
    14  O   -0.460338
    15  C   -0.170007
    16  C   -0.218460
    17  C   -0.169997
    18  C    0.158137
    19  C   -0.170458
    20  C   -0.218383
    21  H    0.226960
    22  H    0.225001
    23  H    0.276722
    24  H    0.274280
    25  H    0.223959
    26  N    0.491101
    27  O   -0.468601
    28  O   -0.458836
 Sum of Mulliken charges =  -0.00000
 Mulliken charges with hydrogens summed into heavy atoms:
               1
     1  C    0.045766
     2  C    0.030168
     3  C    0.111293
     4  C    0.155915
     5  C    0.095880
     6  C   -0.002508
    12  N    0.487907
    13  O   -0.465504
    14  O   -0.460338
    15  C    0.056953
    16  C    0.006541
    17  C    0.106725
    18  C    0.158137
    19  C    0.103823
    20  C    0.005576
    26  N    0.491101
    27  O   -0.468601
    28  O   -0.458836
 Electronic spatial extent (au):  <R**2>=           7502.4490
 Charge=             -0.0000 electrons
 Dipole moment (field-independent basis, Debye):
    X=             -6.1050    Y=              5.2937    Z=             -0.9210  Tot=              8.1328
 Quadrupole moment (field-independent basis, Debye-Ang):
   XX=            -88.1490   YY=           -103.2663   ZZ=           -104.1134
   XY=             17.4161   XZ=             13.5338   YZ=             -4.4220
 Traceless Quadrupole moment (field-independent basis, Debye-Ang):
   XX=             10.3605   YY=             -4.7568   ZZ=             -5.6038
   XY=             17.4161   XZ=             13.5338   YZ=             -4.4220
 Octapole moment (field-independent basis, Debye-Ang**2):
  XXX=           -205.3631  YYY=             26.6688  ZZZ=              4.4491  XYY=            -18.2429
  XXY=             42.9139  XXZ=            -19.1448  XZZ=             -7.1465  YZZ=             13.3171
  YYZ=              2.2592  XYZ=             -9.1192
 Hexadecapole moment (field-independent basis, Debye-Ang**3):
 XXXX=          -7518.0874 YYYY=          -1131.1017 ZZZZ=           -795.5636 XXXY=            327.5585
 XXXZ=            271.8057 YYYX=             96.0696 YYYZ=            -11.7457 ZZZX=             -1.2677
 ZZZY=             -9.4173 XXYY=          -1570.6285 XXZZ=          -1479.2023 YYZZ=           -318.2412
 XXYZ=           -168.2516 YYXZ=             13.2041 ZZXY=            -21.1968
 N-N= 1.140780416072D+03 E-N=-4.315098492533D+03  KE= 8.656971035963D+02
 Leave Link  601 at Thu May  6 16:13:35 2021, MaxMem=   524288000 cpu:               0.3 elap:               0.3
 (Enter /opt/gaussian/g16_legacy/l9999.exe)
 1\1\GINC-TRUENO92\SP\RMP2-FC\6-31G(d)\C12H10N2O4\JRAMOS\06-May-2021\0\
 \#p 6-31g* mp2\\Input file generated by CHIRIPA (05-May-2021 14:57:22)
 \\0,1\C,0,1.914143,0.,0.\C,0,1.214143,1.211,0.\C,0,-0.183857,1.223,0.\
 C,0,-0.852857,0.,0.\C,0,-0.183857,-1.223,0.\C,0,1.214143,-1.211,0.\H,0
 ,3.000143,0.,0.\H,0,1.755143,2.153,0.\H,0,-0.750857,2.146,0.\H,0,-0.75
 0857,-2.146,0.\H,0,1.755143,-2.153,0.\N,0,-2.332857,0.,0.\O,0,-2.89885
 7,-1.091,0.\O,0,-2.898857,1.091,0.\C,0,1.601655,3.231436,-7.989117\C,0
 ,0.990247,4.389777,-7.498253\C,0,0.781265,4.555269,-6.125851\C,0,1.198
 014,3.537788,-5.268913\C,0,1.809946,2.372169,-5.727347\C,0,2.008835,2.
 228098,-7.103659\H,0,1.760077,3.111199,-9.056751\H,0,0.673002,5.170632
 ,-8.183575\H,0,0.310379,5.441839,-5.718817\H,0,2.115408,1.611151,-5.01
 956\H,0,2.483919,1.327448,-7.482038\N,0,0.982116,3.701648,-3.813943\O,
 0,1.358377,2.790576,-3.079768\O,0,0.440723,4.738051,-3.435262\\Version
 =EM64L-G16RevA.03\State=1-A\HF=-868.339232\MP2=-870.9384786\RMSD=2.873
 e-09\PG=C01 [X(C12H10N2O4)]\\@


 IF AT FIRST YOU DON'T SUCCEED, TRY, TRY AGAIN.
 THEN GIVE UP;
 THERE'S NO USE BEING A DAMN FOOL ABOUT IT.

                                 -- W. C. FIELDS
 Job cpu time:       0 days  0 hours  5 minutes 19.0 seconds.
 Elapsed time:       0 days  0 hours  2 minutes 40.7 seconds.
 File lengths (MBytes):  RWF=     50 Int=      0 D2E=      0 Chk=      7 Scr=      1
 Normal termination of Gaussian 16 at Thu May  6 16:13:36 2021.
