 Entering Gaussian System, Link 0=/opt/gaussian/g16_legacy/g16
 Input=gaussian_02408_2_2.com
 Output=gaussian_02408_2_2.log
 Initial command:
 /opt/gaussian/g16_legacy/l1.exe "/scratch-local/jramos/2590999/Gau-16382.inp" -scrdir="/scratch-local/jramos/2590999/"
 Entering Link 1 = /opt/gaussian/g16_legacy/l1.exe PID=     16383.
  
 Copyright (c) 1988,1990,1992,1993,1995,1998,2003,2009,2016,
            Gaussian, Inc.  All Rights Reserved.
  
 This is part of the Gaussian(R) 16 program.  It is based on
 the Gaussian(R) 09 system (copyright 2009, Gaussian, Inc.),
 the Gaussian(R) 03 system (copyright 2003, Gaussian, Inc.),
 the Gaussian(R) 98 system (copyright 1998, Gaussian, Inc.),
 the Gaussian(R) 94 system (copyright 1995, Gaussian, Inc.),
 the Gaussian 92(TM) system (copyright 1992, Gaussian, Inc.),
 the Gaussian 90(TM) system (copyright 1990, Gaussian, Inc.),
 the Gaussian 88(TM) system (copyright 1988, Gaussian, Inc.),
 the Gaussian 86(TM) system (copyright 1986, Carnegie Mellon
 University), and the Gaussian 82(TM) system (copyright 1983,
 Carnegie Mellon University). Gaussian is a federally registered
 trademark of Gaussian, Inc.
  
 This software contains proprietary and confidential information,
 including trade secrets, belonging to Gaussian, Inc.
  
 This software is provided under written license and may be
 used, copied, transmitted, or stored only in accord with that
 written license.
  
 The following legend is applicable only to US Government
 contracts under FAR:
  
                    RESTRICTED RIGHTS LEGEND
  
 Use, reproduction and disclosure by the US Government is
 subject to restrictions as set forth in subparagraphs (a)
 and (c) of the Commercial Computer Software - Restricted
 Rights clause in FAR 52.227-19.
  
 Gaussian, Inc.
 340 Quinnipiac St., Bldg. 40, Wallingford CT 06492
  
  
 ---------------------------------------------------------------
 Warning -- This program may not be used in any manner that
 competes with the business of Gaussian, Inc. or will provide
 assistance to any competitor of Gaussian, Inc.  The licensee
 of this program is prohibited from giving any competitor of
 Gaussian, Inc. access to this program.  By using this program,
 the user acknowledges that Gaussian, Inc. is engaged in the
 business of creating and licensing software in the field of
 computational chemistry and represents and warrants to the
 licensee that it is not a competitor of Gaussian, Inc. and that
 it will not use this program in any manner prohibited above.
 ---------------------------------------------------------------
  

 Cite this work as:
 Gaussian 16, Revision A.03,
 M. J. Frisch, G. W. Trucks, H. B. Schlegel, G. E. Scuseria, 
 M. A. Robb, J. R. Cheeseman, G. Scalmani, V. Barone, 
 G. A. Petersson, H. Nakatsuji, X. Li, M. Caricato, A. V. Marenich, 
 J. Bloino, B. G. Janesko, R. Gomperts, B. Mennucci, H. P. Hratchian, 
 J. V. Ortiz, A. F. Izmaylov, J. L. Sonnenberg, D. Williams-Young, 
 F. Ding, F. Lipparini, F. Egidi, J. Goings, B. Peng, A. Petrone, 
 T. Henderson, D. Ranasinghe, V. G. Zakrzewski, J. Gao, N. Rega, 
 G. Zheng, W. Liang, M. Hada, M. Ehara, K. Toyota, R. Fukuda, 
 J. Hasegawa, M. Ishida, T. Nakajima, Y. Honda, O. Kitao, H. Nakai, 
 T. Vreven, K. Throssell, J. A. Montgomery, Jr., J. E. Peralta, 
 F. Ogliaro, M. J. Bearpark, J. J. Heyd, E. N. Brothers, K. N. Kudin, 
 V. N. Staroverov, T. A. Keith, R. Kobayashi, J. Normand, 
 K. Raghavachari, A. P. Rendell, J. C. Burant, S. S. Iyengar, 
 J. Tomasi, M. Cossi, J. M. Millam, M. Klene, C. Adamo, R. Cammi, 
 J. W. Ochterski, R. L. Martin, K. Morokuma, O. Farkas, 
 J. B. Foresman, and D. J. Fox, Gaussian, Inc., Wallingford CT, 2016.
 
 ******************************************
 Gaussian 16:  EM64L-G16RevA.03 25-Dec-2016
                 6-May-2021 
 ******************************************
 %chk=gaussian_02408_2_2.chk
 %nproc=2
 Will use up to    2 processors via shared memory.
 %mem=4000Mb
 -------------
 #p 6-31g* mp2
 -------------
 1/38=1,172=1/1;
 2/12=2,17=6,18=5,40=1/2;
 3/5=1,6=6,7=1,11=9,25=1,30=1/1,2,3;
 4//1;
 5/5=2,38=5/2;
 8/10=2/1;
 9/16=-3/6;
 6/7=2,8=2,9=2,10=2/1;
 99/5=1,9=1/99;
 Leave Link    1 at Thu May  6 01:49:49 2021, MaxMem=   524288000 cpu:               0.0 elap:               0.1
 (Enter /opt/gaussian/g16_legacy/l101.exe)
 ------------------------------------------------------
 Input file generated by CHIRIPA (05-May-2021 14:57:24)
 ------------------------------------------------------
 Symbolic Z-matrix:
 Charge =  0 Multiplicity = 1
 C                     1.91414   0.        0. 
 C                     1.21414   1.211     0. 
 C                    -0.18386   1.223     0. 
 C                    -0.85286   0.        0. 
 C                    -0.18386  -1.223     0. 
 C                     1.21414  -1.211     0. 
 H                     3.00014   0.        0. 
 H                     1.75514   2.153     0. 
 H                    -0.75086   2.146     0. 
 H                    -0.75086  -2.146     0. 
 H                     1.75514  -2.153     0. 
 N                    -2.33286   0.        0. 
 O                    -2.89886  -1.091     0. 
 O                    -2.89886   1.091     0. 
 C                    -1.94721   2.00488  -4.00587 
 C                    -3.23175   2.39547  -4.39821 
 C                    -3.87024   3.46905  -3.77027 
 C                    -3.19193   4.13266  -2.74909 
 C                    -1.91174   3.76737  -2.33563 
 C                    -1.29246   2.69087  -2.97764 
 H                    -1.45868   1.16976  -4.49913 
 H                    -3.74264   1.86457  -5.19644 
 H                    -4.86434   3.7925   -4.0541 
 H                    -1.42776   4.31596  -1.53673 
 H                    -0.29484   2.38973  -2.67086 
 N                    -3.8577    5.27076  -2.07686 
 O                    -3.23876   5.83907  -1.17988 
 O                    -4.98588   5.57295  -2.45968 
 
 ITRead=  0  0  0  0  0  0  0  0  0  0  0  0  0  0  0  0  0  0  0  0
 ITRead=  0  0  0  0  0  0  0  0
 MicOpt= -1 -1 -1 -1 -1 -1 -1 -1 -1 -1 -1 -1 -1 -1 -1 -1 -1 -1 -1 -1
 MicOpt= -1 -1 -1 -1 -1 -1 -1 -1
 NAtoms=     28 NQM=       28 NQMF=       0 NMMI=      0 NMMIF=      0
                NMic=       0 NMicF=      0.
                    Isotopes and Nuclear Properties:
 (Nuclear quadrupole moments (NQMom) in fm**2, nuclear magnetic moments (NMagM)
  in nuclear magnetons)

  Atom         1           2           3           4           5           6           7           8           9          10
 IAtWgt=          12          12          12          12          12          12           1           1           1           1
 AtmWgt=  12.0000000  12.0000000  12.0000000  12.0000000  12.0000000  12.0000000   1.0078250   1.0078250   1.0078250   1.0078250
 NucSpn=           0           0           0           0           0           0           1           1           1           1
 AtZEff=  -0.0000000  -0.0000000  -0.0000000  -0.0000000  -0.0000000  -0.0000000  -0.0000000  -0.0000000  -0.0000000  -0.0000000
 NQMom=    0.0000000   0.0000000   0.0000000   0.0000000   0.0000000   0.0000000   0.0000000   0.0000000   0.0000000   0.0000000
 NMagM=    0.0000000   0.0000000   0.0000000   0.0000000   0.0000000   0.0000000   2.7928460   2.7928460   2.7928460   2.7928460
 AtZNuc=   6.0000000   6.0000000   6.0000000   6.0000000   6.0000000   6.0000000   1.0000000   1.0000000   1.0000000   1.0000000

  Atom        11          12          13          14          15          16          17          18          19          20
 IAtWgt=           1          14          16          16          12          12          12          12          12          12
 AtmWgt=   1.0078250  14.0030740  15.9949146  15.9949146  12.0000000  12.0000000  12.0000000  12.0000000  12.0000000  12.0000000
 NucSpn=           1           2           0           0           0           0           0           0           0           0
 AtZEff=  -0.0000000  -0.0000000  -0.0000000  -0.0000000  -0.0000000  -0.0000000  -0.0000000  -0.0000000  -0.0000000  -0.0000000
 NQMom=    0.0000000   2.0440000   0.0000000   0.0000000   0.0000000   0.0000000   0.0000000   0.0000000   0.0000000   0.0000000
 NMagM=    2.7928460   0.4037610   0.0000000   0.0000000   0.0000000   0.0000000   0.0000000   0.0000000   0.0000000   0.0000000
 AtZNuc=   1.0000000   7.0000000   8.0000000   8.0000000   6.0000000   6.0000000   6.0000000   6.0000000   6.0000000   6.0000000

  Atom        21          22          23          24          25          26          27          28
 IAtWgt=           1           1           1           1           1          14          16          16
 AtmWgt=   1.0078250   1.0078250   1.0078250   1.0078250   1.0078250  14.0030740  15.9949146  15.9949146
 NucSpn=           1           1           1           1           1           2           0           0
 AtZEff=  -0.0000000  -0.0000000  -0.0000000  -0.0000000  -0.0000000  -0.0000000  -0.0000000  -0.0000000
 NQMom=    0.0000000   0.0000000   0.0000000   0.0000000   0.0000000   2.0440000   0.0000000   0.0000000
 NMagM=    2.7928460   2.7928460   2.7928460   2.7928460   2.7928460   0.4037610   0.0000000   0.0000000
 AtZNuc=   1.0000000   1.0000000   1.0000000   1.0000000   1.0000000   7.0000000   8.0000000   8.0000000
 Leave Link  101 at Thu May  6 01:49:49 2021, MaxMem=   524288000 cpu:               0.1 elap:               0.1
 (Enter /opt/gaussian/g16_legacy/l202.exe)
                          Input orientation:                          
 ---------------------------------------------------------------------
 Center     Atomic      Atomic             Coordinates (Angstroms)
 Number     Number       Type             X           Y           Z
 ---------------------------------------------------------------------
      1          6           0        1.914143    0.000000    0.000000
      2          6           0        1.214143    1.211000    0.000000
      3          6           0       -0.183857    1.223000    0.000000
      4          6           0       -0.852857    0.000000    0.000000
      5          6           0       -0.183857   -1.223000    0.000000
      6          6           0        1.214143   -1.211000    0.000000
      7          1           0        3.000143    0.000000    0.000000
      8          1           0        1.755143    2.153000    0.000000
      9          1           0       -0.750857    2.146000    0.000000
     10          1           0       -0.750857   -2.146000    0.000000
     11          1           0        1.755143   -2.153000    0.000000
     12          7           0       -2.332857    0.000000    0.000000
     13          8           0       -2.898857   -1.091000    0.000000
     14          8           0       -2.898857    1.091000    0.000000
     15          6           0       -1.947213    2.004881   -4.005868
     16          6           0       -3.231748    2.395474   -4.398207
     17          6           0       -3.870239    3.469052   -3.770267
     18          6           0       -3.191934    4.132662   -2.749085
     19          6           0       -1.911737    3.767371   -2.335628
     20          6           0       -1.292462    2.690866   -2.977644
     21          1           0       -1.458682    1.169763   -4.499134
     22          1           0       -3.742637    1.864565   -5.196437
     23          1           0       -4.864344    3.792495   -4.054096
     24          1           0       -1.427756    4.315956   -1.536732
     25          1           0       -0.294840    2.389733   -2.670863
     26          7           0       -3.857704    5.270760   -2.076862
     27          8           0       -3.238757    5.839066   -1.179884
     28          8           0       -4.985876    5.572945   -2.459681
 ---------------------------------------------------------------------
                    Distance matrix (angstroms):
                    1          2          3          4          5
     1  C    0.000000
     2  C    1.398757   0.000000
     3  C    2.428443   1.398052   0.000000
     4  C    2.767000   2.395623   1.394019   0.000000
     5  C    2.428443   2.806913   2.446000   1.394019   0.000000
     6  C    1.398757   2.422000   2.806913   2.395623   1.398052
     7  H    1.086000   2.157850   3.410804   3.853000   3.410804
     8  H    2.158863   1.086299   2.150493   3.381874   3.893212
     9  H    3.421628   2.176109   1.083244   2.148423   3.416380
    10  H    3.421628   3.889817   3.416380   2.148423   1.083244
    11  H    2.158863   3.407224   3.893212   3.381874   2.150493
    12  N    4.247000   3.748030   2.472636   1.480000   2.472636
    13  O    4.935104   4.713382   3.567327   2.318706   2.718207
    14  O    4.935104   4.114750   2.718207   2.318706   3.567327
    15  C    5.914101   5.164436   4.446093   4.611306   5.438347
    16  C    7.180718   6.364994   5.478007   5.544515   6.459661
    17  C    7.727115   6.720465   5.731411   5.945909   7.058306
    18  C    7.120982   5.958783   5.007208   5.487043   6.729718
    19  C    5.855391   4.664903   3.861936   4.557353   5.774472
    20  C    5.137065   4.164065   3.500000   4.037372   5.041202
    21  H    5.743388   5.233345   4.676561   4.688025   5.252875
    22  H    7.904348   7.211087   6.330836   6.231403   7.014337
    23  H    8.761655   7.749053   6.704100   6.849142   7.968553
    24  H    5.670742   4.356825   3.670859   4.617308   5.881230
    25  H    4.209981   3.286328   2.916692   3.627081   4.494181
    26  N    8.087551   6.820457   5.847638   6.412751   7.744639
    27  O    7.876496   6.529888   5.659735   6.417113   7.784428
    28  O    9.204239   7.969745   6.930472   7.361358   8.677228
                    6          7          8          9         10
     6  C    0.000000
     7  H    2.157850   0.000000
     8  H    3.407224   2.487053   0.000000
     9  H    3.889817   4.321495   2.506010   0.000000
    10  H    2.176109   4.321495   4.976087   4.292000   0.000000
    11  H    1.086299   2.487053   4.306000   4.976087   2.506010
    12  N    3.748030   5.333000   4.620298   2.666091   2.666091
    13  O    4.114750   5.999040   5.673028   3.884852   2.393100
    14  O    4.713382   5.999040   4.773632   2.393100   3.884852
    15  C    6.031836   6.674044   5.456772   4.183080   5.891355
    16  C    7.219198   7.994935   6.653728   5.055817   6.791468
    17  C    7.872023   8.570378   6.898683   5.069115   7.448105
    18  C    7.451557   7.935879   5.995840   4.178894   7.275845
    19  C    6.325382   6.616253   4.637603   3.071098   6.463030
    20  C    5.511260   5.876528   4.294597   3.075155   5.705696
    21  H    5.749281   6.441403   5.615838   4.657925   5.633605
    22  H    7.812280   8.714622   7.570452   6.002742   7.213760
    23  H    8.855431   9.626467   7.933552   6.005615   8.283851
    24  H    6.315728   6.371445   4.143763   2.743801   6.676572
    25  H    4.730308   4.868393   3.375201   2.720453   5.283402
    26  N    8.488239   8.895186   6.748173   4.871343   8.305070
    27  O    8.421631   8.626163   6.318089   4.606572   8.446482
    28  O    9.513789  10.044115   7.949050   5.977405   9.141528
                   11         12         13         14         15
    11  H    0.000000
    12  N    4.620298   0.000000
    13  O    4.773632   1.229080   0.000000
    14  O    5.673028   1.229080   2.182000   0.000000
    15  C    6.858746   4.496137   5.151416   4.217557   0.000000
    16  C    8.056173   5.088273   5.622325   4.599641   1.398758
    17  C    8.801551   5.349091   5.996046   4.562195   2.428443
    18  C    8.458167   5.037299   5.910161   4.110361   2.766999
    19  C    7.345200   4.452593   5.480268   3.686804   2.428442
    20  C    6.451147   4.146028   5.074385   3.742518   1.398756
    21  H    6.450708   4.730194   5.237114   4.724671   1.086000
    22  H    8.565592   5.697986   6.037407   5.321027   2.158863
    23  H    9.777638   6.101405   6.644348   5.253276   3.421629
    24  H    7.371552   4.669928   5.810409   3.863421   3.421628
    25  H    5.654411   4.122844   5.101952   3.949825   2.158862
    26  N    9.535702   5.866807   6.760528   4.764781   4.247000
    27  O    9.497594   6.025568   7.038002   4.904262   4.935103
    28  O   10.544268   6.644265   7.403637   5.522093   4.935104
                   16         17         18         19         20
    16  C    0.000000
    17  C    1.398052   0.000000
    18  C    2.395623   1.394019   0.000000
    19  C    2.806913   2.445999   1.394019   0.000000
    20  C    2.422000   2.806913   2.395623   1.398052   0.000000
    21  H    2.157850   3.410804   3.852999   3.410804   2.157850
    22  H    1.086298   2.150493   3.381874   3.893211   3.407224
    23  H    2.176109   1.083245   2.148423   3.416380   3.889817
    24  H    3.889817   3.416379   2.148423   1.083244   2.176109
    25  H    3.407225   3.893212   3.381874   2.150494   1.086299
    26  N    3.748031   2.472636   1.480000   2.472635   3.748030
    27  O    4.713383   3.567327   2.318706   2.718206   4.114750
    28  O    4.114750   2.718207   2.318706   3.567326   4.713382
                   21         22         23         24         25
    21  H    0.000000
    22  H    2.487053   0.000000
    23  H    4.321495   2.506010   0.000000
    24  H    4.321494   4.976086   4.292001   0.000000
    25  H    2.487052   4.305999   4.976087   2.506010   0.000000
    26  N    5.333000   4.620298   2.666092   2.666090   4.620298
    27  O    5.999040   5.673028   3.884853   2.393100   4.773632
    28  O    5.999040   4.773632   2.393101   3.884852   5.673029
                   26         27         28
    26  N    0.000000
    27  O    1.229080   0.000000
    28  O    1.229080   2.182000   0.000000
 Stoichiometry    C12H10N2O4
 Framework group  C1[X(C12H10N2O4)]
 Deg. of freedom    78
 Full point group                 C1      NOp   1
 Largest Abelian subgroup         C1      NOp   1
 Largest concise Abelian subgroup C1      NOp   1
                         Standard orientation:                         
 ---------------------------------------------------------------------
 Center     Atomic      Atomic             Coordinates (Angstroms)
 Number     Number       Type             X           Y           Z
 ---------------------------------------------------------------------
      1          6           0        4.104677   -1.774463    0.272056
      2          6           0        2.834931   -1.967258   -0.282108
      3          6           0        2.046194   -0.872436   -0.647904
      4          6           0        2.560806    0.407074   -0.444636
      5          6           0        3.821966    0.631688    0.105194
      6          6           0        4.593280   -0.477891    0.463601
      7          1           0        4.710620   -2.630679    0.553346
      8          1           0        2.452904   -2.973055   -0.432013
      9          1           0        1.059742   -0.992989   -1.078947
     10          1           0        4.175693    1.646301    0.242515
     11          1           0        5.579019   -0.325156    0.893759
     12          7           0        1.735027    1.573924   -0.827977
     13          8           0        2.211279    2.691057   -0.638671
     14          8           0        0.627167    1.349274   -1.310486
     15          6           0       -1.115763    0.102116    2.321947
     16          6           0       -2.273776    0.881047    2.228156
     17          6           0       -3.156990    0.714058    1.157364
     18          6           0       -2.849763   -0.245397    0.193857
     19          6           0       -1.704050   -1.036811    0.259401
     20          6           0       -0.835092   -0.852643    1.339004
     21          1           0       -0.435199    0.238510    3.157186
     22          1           0       -2.494300    1.623285    2.990059
     23          1           0       -4.060581    1.303540    1.060133
     24          1           0       -1.511104   -1.768714   -0.515523
     25          1           0        0.063492   -1.458990    1.409264
     26          7           0       -3.777236   -0.431275   -0.944406
     27          8           0       -3.483871   -1.283308   -1.780237
     28          8           0       -4.779993    0.278589   -0.979193
 ---------------------------------------------------------------------
 Rotational constants (GHZ):           0.7203713           0.2018072           0.1971405
 Leave Link  202 at Thu May  6 01:49:49 2021, MaxMem=   524288000 cpu:               0.0 elap:               0.1
 (Enter /opt/gaussian/g16_legacy/l301.exe)
 Standard basis: 6-31G(d) (6D, 7F)
 Ernie: Thresh=  0.10000D-02 Tol=  0.10000D-05 Strict=F.
 There are   290 symmetry adapted cartesian basis functions of A   symmetry.
 There are   290 symmetry adapted basis functions of A   symmetry.
   290 basis functions,   544 primitive gaussians,   290 cartesian basis functions
    64 alpha electrons       64 beta electrons
       nuclear repulsion energy      1202.5228116585 Hartrees.
 IExCor=    0 DFT=F Ex=HF Corr=None ExCW=0 ScaHFX=  1.000000
 ScaDFX=  1.000000  1.000000  1.000000  1.000000 ScalE2=  1.000000  1.000000
 IRadAn=      5 IRanWt=     -1 IRanGd=            0 ICorTp=0 IEmpDi=  4
 NAtoms=   28 NActive=   28 NUniq=   28 SFac= 1.00D+00 NAtFMM=   60 NAOKFM=F Big=F
 Integral buffers will be    131072 words long.
 Raffenetti 1 integral format.
 Two-electron integral symmetry is turned on.
 Leave Link  301 at Thu May  6 01:49:49 2021, MaxMem=   524288000 cpu:               0.1 elap:               0.1
 (Enter /opt/gaussian/g16_legacy/l302.exe)
 NPDir=0 NMtPBC=     1 NCelOv=     1 NCel=       1 NClECP=     1 NCelD=      1
         NCelK=      1 NCelE2=     1 NClLst=     1 CellRange=     0.0.
 One-electron integrals computed using PRISM.
 One-electron integral symmetry used in STVInt
 NBasis=   290 RedAO= T EigKep=  4.70D-04  NBF=   290
 NBsUse=   290 1.00D-06 EigRej= -1.00D+00 NBFU=   290
 Leave Link  302 at Thu May  6 01:49:50 2021, MaxMem=   524288000 cpu:               0.4 elap:               0.4
 (Enter /opt/gaussian/g16_legacy/l303.exe)
 DipDrv:  MaxL=1.
 Leave Link  303 at Thu May  6 01:49:50 2021, MaxMem=   524288000 cpu:               0.1 elap:               0.0
 (Enter /opt/gaussian/g16_legacy/l401.exe)
 ExpMin= 1.61D-01 ExpMax= 5.48D+03 ExpMxC= 8.25D+02 IAcc=3 IRadAn=         5 AccDes= 0.00D+00
 Harris functional with IExCor=  205 and IRadAn=       5 diagonalized for initial guess.
 HarFok:  IExCor=  205 AccDes= 0.00D+00 IRadAn=         5 IDoV= 1 UseB2=F ITyADJ=14
 ICtDFT=  3500011 ScaDFX=  1.000000  1.000000  1.000000  1.000000
 FoFCou: FMM=F IPFlag=           0 FMFlag=      100000 FMFlg1=           0
         NFxFlg=           0 DoJE=T BraDBF=F KetDBF=T FulRan=T
         wScrn=  0.000000 ICntrl=       500 IOpCl=  0 I1Cent=   200000004 NGrid=           0
         NMat0=    1 NMatS0=      1 NMatT0=    0 NMatD0=    1 NMtDS0=    0 NMtDT0=    0
 Petite list used in FoFCou.
 Harris En= -869.213408546383    
 JPrj=0 DoOrth=F DoCkMO=F.
 Leave Link  401 at Thu May  6 01:49:54 2021, MaxMem=   524288000 cpu:               6.9 elap:               3.6
 (Enter /opt/gaussian/g16_legacy/l502.exe)
 Integral symmetry usage will be decided dynamically.
 Closed shell SCF:
 Using DIIS extrapolation, IDIIS=  1040.
 NGot=   524288000 LenX=   524114954 LenY=   524030413
 Requested convergence on RMS density matrix=1.00D-08 within 128 cycles.
 Requested convergence on MAX density matrix=1.00D-06.
 Requested convergence on             energy=1.00D-06.
 No special actions if energy rises.
 Fock matrices will be formed incrementally for  20 cycles.
 Integral accuracy reduced to 1.0D-05 until final iterations.

 Cycle   1  Pass 0  IDiag  1:
 FoFJK:  IHMeth= 1 ICntrl=       0 DoSepK=F KAlg= 0 I1Cent=           0 FoldK=F
 IRaf= 770000000 NMat=       1 IRICut=       1 DoRegI=T DoRafI=F ISym2E= 0 IDoP0=0 IntGTp=1.
 FoFCou: FMM=F IPFlag=           0 FMFlag=      100000 FMFlg1=           0
         NFxFlg=           0 DoJE=F BraDBF=F KetDBF=F FulRan=T
         wScrn=  0.000000 ICntrl=         0 IOpCl=  0 I1Cent=           0 NGrid=           0
         NMat0=    1 NMatS0=      1 NMatT0=    0 NMatD0=    1 NMtDS0=    0 NMtDT0=    0
 Symmetry not used in FoFCou.
 E= -867.611219301649    
 DIIS: error= 5.85D-02 at cycle   1 NSaved=   1.
 NSaved= 1 IEnMin= 1 EnMin= -867.611219301649     IErMin= 1 ErrMin= 5.85D-02
 ErrMax= 5.85D-02  0.00D+00 EMaxC= 1.00D-01 BMatC= 1.28D+00 BMatP= 1.28D+00
 IDIUse=3 WtCom= 4.15D-01 WtEn= 5.85D-01
 Coeff-Com:  0.100D+01
 Coeff-En:   0.100D+01
 Coeff:      0.100D+01
 Gap=     0.549 Goal=   None    Shift=    0.000
 GapD=    0.549 DampG=2.000 DampE=0.500 DampFc=1.0000 IDamp=-1.
 RMSDP=4.45D-03 MaxDP=8.70D-02              OVMax= 1.49D-01

 Cycle   2  Pass 0  IDiag  1:
 RMSU=  4.34D-03    CP:  9.52D-01
 E= -868.121708671674     Delta-E=       -0.510489370025 Rises=F Damp=F
 DIIS: error= 2.55D-02 at cycle   2 NSaved=   2.
 NSaved= 2 IEnMin= 2 EnMin= -868.121708671674     IErMin= 2 ErrMin= 2.55D-02
 ErrMax= 2.55D-02  0.00D+00 EMaxC= 1.00D-01 BMatC= 2.85D-01 BMatP= 1.28D+00
 IDIUse=3 WtCom= 7.45D-01 WtEn= 2.55D-01
 Coeff-Com:  0.266D+00 0.734D+00
 Coeff-En:   0.000D+00 0.100D+01
 Coeff:      0.198D+00 0.802D+00
 Gap=     0.455 Goal=   None    Shift=    0.000
 RMSDP=1.79D-03 MaxDP=8.23D-02 DE=-5.10D-01 OVMax= 1.19D-01

 Cycle   3  Pass 0  IDiag  1:
 RMSU=  1.59D-03    CP:  9.54D-01  8.10D-01
 E= -868.293279360274     Delta-E=       -0.171570688600 Rises=F Damp=F
 DIIS: error= 1.37D-02 at cycle   3 NSaved=   3.
 NSaved= 3 IEnMin= 3 EnMin= -868.293279360274     IErMin= 3 ErrMin= 1.37D-02
 ErrMax= 1.37D-02  0.00D+00 EMaxC= 1.00D-01 BMatC= 5.70D-02 BMatP= 2.85D-01
 IDIUse=3 WtCom= 8.63D-01 WtEn= 1.37D-01
 Coeff-Com: -0.225D-01 0.290D+00 0.733D+00
 Coeff-En:   0.000D+00 0.305D-01 0.970D+00
 Coeff:     -0.194D-01 0.254D+00 0.765D+00
 Gap=     0.415 Goal=   None    Shift=    0.000
 RMSDP=6.33D-04 MaxDP=2.73D-02 DE=-1.72D-01 OVMax= 4.19D-02

 Cycle   4  Pass 0  IDiag  1:
 RMSU=  3.75D-04    CP:  9.53D-01  8.99D-01  7.91D-01
 E= -868.333610313615     Delta-E=       -0.040330953341 Rises=F Damp=F
 DIIS: error= 2.41D-03 at cycle   4 NSaved=   4.
 NSaved= 4 IEnMin= 4 EnMin= -868.333610313615     IErMin= 4 ErrMin= 2.41D-03
 ErrMax= 2.41D-03  0.00D+00 EMaxC= 1.00D-01 BMatC= 2.21D-03 BMatP= 5.70D-02
 IDIUse=3 WtCom= 9.76D-01 WtEn= 2.41D-02
 Coeff-Com: -0.122D-01 0.431D-01 0.238D+00 0.731D+00
 Coeff-En:   0.000D+00 0.000D+00 0.000D+00 0.100D+01
 Coeff:     -0.119D-01 0.421D-01 0.233D+00 0.737D+00
 Gap=     0.401 Goal=   None    Shift=    0.000
 RMSDP=1.60D-04 MaxDP=5.46D-03 DE=-4.03D-02 OVMax= 9.24D-03

 Cycle   5  Pass 0  IDiag  1:
 RMSU=  1.10D-04    CP:  9.53D-01  9.02D-01  8.52D-01  8.39D-01
 E= -868.335563809980     Delta-E=       -0.001953496365 Rises=F Damp=F
 DIIS: error= 4.15D-04 at cycle   5 NSaved=   5.
 NSaved= 5 IEnMin= 5 EnMin= -868.335563809980     IErMin= 5 ErrMin= 4.15D-04
 ErrMax= 4.15D-04  0.00D+00 EMaxC= 1.00D-01 BMatC= 7.75D-05 BMatP= 2.21D-03
 IDIUse=3 WtCom= 9.96D-01 WtEn= 4.15D-03
 Coeff-Com:  0.194D-02-0.223D-01-0.646D-01 0.602D-02 0.108D+01
 Coeff-En:   0.000D+00 0.000D+00 0.000D+00 0.000D+00 0.100D+01
 Coeff:      0.193D-02-0.222D-01-0.643D-01 0.600D-02 0.108D+01
 Gap=     0.403 Goal=   None    Shift=    0.000
 RMSDP=5.79D-05 MaxDP=1.61D-03 DE=-1.95D-03 OVMax= 4.42D-03

 Cycle   6  Pass 0  IDiag  1:
 RMSU=  2.84D-05    CP:  9.52D-01  9.06D-01  8.63D-01  9.37D-01  1.22D+00
 E= -868.335727640824     Delta-E=       -0.000163830844 Rises=F Damp=F
 DIIS: error= 2.06D-04 at cycle   6 NSaved=   6.
 NSaved= 6 IEnMin= 6 EnMin= -868.335727640824     IErMin= 6 ErrMin= 2.06D-04
 ErrMax= 2.06D-04  0.00D+00 EMaxC= 1.00D-01 BMatC= 1.04D-05 BMatP= 7.75D-05
 IDIUse=3 WtCom= 9.98D-01 WtEn= 2.06D-03
 Coeff-Com:  0.132D-02-0.740D-02-0.320D-01-0.635D-01 0.101D+00 0.100D+01
 Coeff-En:   0.000D+00 0.000D+00 0.000D+00 0.000D+00 0.000D+00 0.100D+01
 Coeff:      0.131D-02-0.739D-02-0.319D-01-0.634D-01 0.101D+00 0.100D+01
 Gap=     0.403 Goal=   None    Shift=    0.000
 RMSDP=2.27D-05 MaxDP=5.23D-04 DE=-1.64D-04 OVMax= 1.74D-03

 Cycle   7  Pass 0  IDiag  1:
 RMSU=  1.12D-05    CP:  9.52D-01  9.07D-01  8.67D-01  9.58D-01  1.36D+00
                    CP:  1.24D+00
 E= -868.335757360628     Delta-E=       -0.000029719803 Rises=F Damp=F
 DIIS: error= 1.32D-04 at cycle   7 NSaved=   7.
 NSaved= 7 IEnMin= 7 EnMin= -868.335757360628     IErMin= 7 ErrMin= 1.32D-04
 ErrMax= 1.32D-04  0.00D+00 EMaxC= 1.00D-01 BMatC= 2.34D-06 BMatP= 1.04D-05
 IDIUse=3 WtCom= 9.99D-01 WtEn= 1.32D-03
 Coeff-Com: -0.759D-04 0.200D-02 0.439D-02-0.651D-02-0.141D+00 0.125D+00
 Coeff-Com:  0.102D+01
 Coeff-En:   0.000D+00 0.000D+00 0.000D+00 0.000D+00 0.000D+00 0.000D+00
 Coeff-En:   0.100D+01
 Coeff:     -0.758D-04 0.200D-02 0.438D-02-0.650D-02-0.141D+00 0.125D+00
 Coeff:      0.102D+01
 Gap=     0.403 Goal=   None    Shift=    0.000
 RMSDP=1.07D-05 MaxDP=4.07D-04 DE=-2.97D-05 OVMax= 1.27D-03

 Cycle   8  Pass 0  IDiag  1:
 RMSU=  5.86D-06    CP:  9.52D-01  9.07D-01  8.66D-01  9.64D-01  1.40D+00
                    CP:  1.49D+00  1.26D+00
 E= -868.335765526613     Delta-E=       -0.000008165985 Rises=F Damp=F
 DIIS: error= 6.25D-05 at cycle   8 NSaved=   8.
 NSaved= 8 IEnMin= 8 EnMin= -868.335765526613     IErMin= 8 ErrMin= 6.25D-05
 ErrMax= 6.25D-05  0.00D+00 EMaxC= 1.00D-01 BMatC= 6.99D-07 BMatP= 2.34D-06
 IDIUse=1 WtCom= 1.00D+00 WtEn= 0.00D+00
 Coeff-Com: -0.353D-03 0.245D-02 0.954D-02 0.164D-01-0.593D-01-0.235D+00
 Coeff-Com:  0.216D+00 0.105D+01
 Coeff:     -0.353D-03 0.245D-02 0.954D-02 0.164D-01-0.593D-01-0.235D+00
 Coeff:      0.216D+00 0.105D+01
 Gap=     0.403 Goal=   None    Shift=    0.000
 RMSDP=6.94D-06 MaxDP=1.96D-04 DE=-8.17D-06 OVMax= 7.32D-04

 Initial convergence to 1.0D-05 achieved.  Increase integral accuracy.
 Cycle   9  Pass 1  IDiag  1:
 E= -868.335764002006     Delta-E=        0.000001524608 Rises=F Damp=F
 DIIS: error= 7.55D-05 at cycle   1 NSaved=   1.
 NSaved= 1 IEnMin= 1 EnMin= -868.335764002006     IErMin= 1 ErrMin= 7.55D-05
 ErrMax= 7.55D-05  0.00D+00 EMaxC= 1.00D-01 BMatC= 5.04D-07 BMatP= 5.04D-07
 IDIUse=1 WtCom= 1.00D+00 WtEn= 0.00D+00
 Coeff-Com:  0.100D+01
 Coeff:      0.100D+01
 Gap=     0.403 Goal=   None    Shift=    0.000
 RMSDP=6.94D-06 MaxDP=1.96D-04 DE= 1.52D-06 OVMax= 2.49D-04

 Cycle  10  Pass 1  IDiag  1:
 RMSU=  2.68D-05    CP:  1.00D+00
 E= -868.335764673260     Delta-E=       -0.000000671254 Rises=F Damp=F
 DIIS: error= 1.58D-05 at cycle   2 NSaved=   2.
 NSaved= 2 IEnMin= 2 EnMin= -868.335764673260     IErMin= 2 ErrMin= 1.58D-05
 ErrMax= 1.58D-05  0.00D+00 EMaxC= 1.00D-01 BMatC= 8.02D-08 BMatP= 5.04D-07
 IDIUse=1 WtCom= 1.00D+00 WtEn= 0.00D+00
 Coeff-Com:  0.995D-01 0.900D+00
 Coeff:      0.995D-01 0.900D+00
 Gap=     0.403 Goal=   None    Shift=    0.000
 RMSDP=1.88D-06 MaxDP=6.30D-05 DE=-6.71D-07 OVMax= 1.46D-04

 Cycle  11  Pass 1  IDiag  1:
 RMSU=  1.48D-06    CP:  1.00D+00  1.04D+00
 E= -868.335764841517     Delta-E=       -0.000000168257 Rises=F Damp=F
 DIIS: error= 1.28D-05 at cycle   3 NSaved=   3.
 NSaved= 3 IEnMin= 3 EnMin= -868.335764841517     IErMin= 3 ErrMin= 1.28D-05
 ErrMax= 1.28D-05  0.00D+00 EMaxC= 1.00D-01 BMatC= 4.36D-08 BMatP= 8.02D-08
 IDIUse=1 WtCom= 1.00D+00 WtEn= 0.00D+00
 Coeff-Com: -0.829D-01 0.364D+00 0.719D+00
 Coeff:     -0.829D-01 0.364D+00 0.719D+00
 Gap=     0.403 Goal=   None    Shift=    0.000
 RMSDP=9.39D-07 MaxDP=3.11D-05 DE=-1.68D-07 OVMax= 8.73D-05

 Cycle  12  Pass 1  IDiag  1:
 RMSU=  8.42D-07    CP:  1.00D+00  1.06D+00  1.16D+00
 E= -868.335764932608     Delta-E=       -0.000000091092 Rises=F Damp=F
 DIIS: error= 7.84D-06 at cycle   4 NSaved=   4.
 NSaved= 4 IEnMin= 4 EnMin= -868.335764932608     IErMin= 4 ErrMin= 7.84D-06
 ErrMax= 7.84D-06  0.00D+00 EMaxC= 1.00D-01 BMatC= 9.71D-09 BMatP= 4.36D-08
 IDIUse=1 WtCom= 1.00D+00 WtEn= 0.00D+00
 Coeff-Com:  0.192D-01-0.633D+00-0.546D+00 0.216D+01
 Coeff:      0.192D-01-0.633D+00-0.546D+00 0.216D+01
 Gap=     0.403 Goal=   None    Shift=    0.000
 RMSDP=1.60D-06 MaxDP=4.00D-05 DE=-9.11D-08 OVMax= 1.88D-04

 Cycle  13  Pass 1  IDiag  1:
 RMSU=  3.07D-07    CP:  1.00D+00  1.06D+00  1.96D+00  2.23D+00
 E= -868.335765003803     Delta-E=       -0.000000071195 Rises=F Damp=F
 DIIS: error= 1.50D-06 at cycle   5 NSaved=   5.
 NSaved= 5 IEnMin= 5 EnMin= -868.335765003803     IErMin= 5 ErrMin= 1.50D-06
 ErrMax= 1.50D-06  0.00D+00 EMaxC= 1.00D-01 BMatC= 4.97D-10 BMatP= 9.71D-09
 IDIUse=1 WtCom= 1.00D+00 WtEn= 0.00D+00
 Coeff-Com:  0.117D-01-0.212D+00-0.212D+00 0.640D+00 0.773D+00
 Coeff:      0.117D-01-0.212D+00-0.212D+00 0.640D+00 0.773D+00
 Gap=     0.403 Goal=   None    Shift=    0.000
 RMSDP=1.73D-07 MaxDP=6.35D-06 DE=-7.12D-08 OVMax= 2.29D-05

 Cycle  14  Pass 1  IDiag  1:
 RMSU=  7.80D-08    CP:  1.00D+00  1.06D+00  2.03D+00  2.36D+00  1.10D+00
 E= -868.335765005039     Delta-E=       -0.000000001236 Rises=F Damp=F
 DIIS: error= 4.92D-07 at cycle   6 NSaved=   6.
 NSaved= 6 IEnMin= 6 EnMin= -868.335765005039     IErMin= 6 ErrMin= 4.92D-07
 ErrMax= 4.92D-07  0.00D+00 EMaxC= 1.00D-01 BMatC= 4.38D-11 BMatP= 4.97D-10
 IDIUse=1 WtCom= 1.00D+00 WtEn= 0.00D+00
 Coeff-Com: -0.235D-02 0.730D-01 0.640D-01-0.247D+00-0.984D-02 0.112D+01
 Coeff:     -0.235D-02 0.730D-01 0.640D-01-0.247D+00-0.984D-02 0.112D+01
 Gap=     0.403 Goal=   None    Shift=    0.000
 RMSDP=5.68D-08 MaxDP=1.22D-06 DE=-1.24D-09 OVMax= 4.17D-06

 Cycle  15  Pass 1  IDiag  1:
 RMSU=  3.53D-08    CP:  1.00D+00  1.06D+00  2.03D+00  2.37D+00  1.22D+00
                    CP:  1.20D+00
 E= -868.335765005122     Delta-E=       -0.000000000083 Rises=F Damp=F
 DIIS: error= 1.24D-07 at cycle   7 NSaved=   7.
 NSaved= 7 IEnMin= 7 EnMin= -868.335765005122     IErMin= 7 ErrMin= 1.24D-07
 ErrMax= 1.24D-07  0.00D+00 EMaxC= 1.00D-01 BMatC= 6.31D-12 BMatP= 4.38D-11
 IDIUse=1 WtCom= 1.00D+00 WtEn= 0.00D+00
 Coeff-Com: -0.226D-02 0.478D-01 0.457D-01-0.151D+00-0.115D+00 0.250D+00
 Coeff-Com:  0.925D+00
 Coeff:     -0.226D-02 0.478D-01 0.457D-01-0.151D+00-0.115D+00 0.250D+00
 Coeff:      0.925D+00
 Gap=     0.403 Goal=   None    Shift=    0.000
 RMSDP=1.93D-08 MaxDP=5.10D-07 DE=-8.32D-11 OVMax= 1.55D-06

 Cycle  16  Pass 1  IDiag  1:
 RMSU=  9.77D-09    CP:  1.00D+00  1.06D+00  2.03D+00  2.38D+00  1.25D+00
                    CP:  1.34D+00  1.25D+00
 E= -868.335765005120     Delta-E=        0.000000000002 Rises=F Damp=F
 DIIS: error= 3.86D-08 at cycle   8 NSaved=   8.
 NSaved= 8 IEnMin= 7 EnMin= -868.335765005122     IErMin= 8 ErrMin= 3.86D-08
 ErrMax= 3.86D-08  0.00D+00 EMaxC= 1.00D-01 BMatC= 4.52D-13 BMatP= 6.31D-12
 IDIUse=1 WtCom= 1.00D+00 WtEn= 0.00D+00
 Coeff-Com: -0.347D-03 0.573D-02 0.602D-02-0.169D-01-0.246D-01-0.207D-01
 Coeff-Com:  0.201D+00 0.849D+00
 Coeff:     -0.347D-03 0.573D-02 0.602D-02-0.169D-01-0.246D-01-0.207D-01
 Coeff:      0.201D+00 0.849D+00
 Gap=     0.403 Goal=   None    Shift=    0.000
 RMSDP=4.29D-09 MaxDP=1.49D-07 DE= 2.27D-12 OVMax= 3.00D-07

 SCF Done:  E(RHF) =  -868.335765005     A.U. after   16 cycles
            NFock= 16  Conv=0.43D-08     -V/T= 2.0030
 KE= 8.657003506857D+02 PE=-4.438016282777D+03 EE= 1.501457355428D+03
 Leave Link  502 at Thu May  6 01:50:36 2021, MaxMem=   524288000 cpu:              84.9 elap:              42.6
 (Enter /opt/gaussian/g16_legacy/l801.exe)
 ExpMin= 1.61D-01 ExpMax= 5.48D+03 ExpMxC= 8.25D+02 IAcc=3 IRadAn=         5 AccDes= 0.00D+00
 HarFok:  IExCor=  205 AccDes= 0.00D+00 IRadAn=         5 IDoV=-2 UseB2=F ITyADJ=14
 ICtDFT= 12500011 ScaDFX=  1.000000  1.000000  1.000000  1.000000
 Largest valence mixing into a core orbital is  1.94D-04
 Largest core mixing into a valence orbital is  4.00D-05
 Range of M.O.s used for correlation:    19   290
 NBasis=   290 NAE=    64 NBE=    64 NFC=    18 NFV=     0
 NROrb=    272 NOA=    46 NOB=    46 NVA=   226 NVB=   226
 Leave Link  801 at Thu May  6 01:50:37 2021, MaxMem=   524288000 cpu:               1.0 elap:               0.5
 (Enter /opt/gaussian/g16_legacy/l906.exe)
 FulOut=F Deriv=F AODrv=F NAtomX=    28
   MMem=          85  MDisk=          46 MDiskD=          46
  W3Min=     3014840 MinDsk=     3114491 NBas6D=         290
 NBas2D=       42681    NTT=       42195    LW2=     2000000
    MDV=   523913330 MDiskM=       24995 NBas2p=       31786
 Fully direct method using O(OVN) memory.
 IMap=   1   2   3   4   5   6   7   8   9  10  11  12  13  14  15  16  17  18  19  20
 IMap=  21  22  23  24  25  26  27  28  29  30  31  32  33  34  35  36  37  38  39  40
 IMap=  41  42  43  44  45  46
 JobTyp=1 Pass  1:  I=   1 to  46 NPSUse=  2 ParTrn=T ParDer=T DoDerP=F.
 Spin components of T(2) and E(2):
     alpha-alpha T2 =       0.1274433978D+00 E2=     -0.3603444532D+00
     alpha-beta  T2 =       0.6488210274D+00 E2=     -0.1882772397D+01
     beta-beta   T2 =       0.1274433978D+00 E2=     -0.3603444532D+00
 The integrals were generated   1 times.
 ANorm=    0.1379749188D+01
 E2 =    -0.2603461304D+01 EUMP2 =    -0.87093922630891D+03
 Leave Link  906 at Thu May  6 01:52:28 2021, MaxMem=   524288000 cpu:             220.7 elap:             110.9
 (Enter /opt/gaussian/g16_legacy/l601.exe)
 Copying SCF densities to generalized density rwf, IOpCl= 0 IROHF=0.

 **********************************************************************

            Population analysis using the SCF density.

 **********************************************************************

 Orbital symmetries:
       Occupied  (A) (A) (A) (A) (A) (A) (A) (A) (A) (A) (A) (A)
                 (A) (A) (A) (A) (A) (A) (A) (A) (A) (A) (A) (A)
                 (A) (A) (A) (A) (A) (A) (A) (A) (A) (A) (A) (A)
                 (A) (A) (A) (A) (A) (A) (A) (A) (A) (A) (A) (A)
                 (A) (A) (A) (A) (A) (A) (A) (A) (A) (A) (A) (A)
                 (A) (A) (A) (A)
       Virtual   (A) (A) (A) (A) (A) (A) (A) (A) (A) (A) (A) (A)
                 (A) (A) (A) (A) (A) (A) (A) (A) (A) (A) (A) (A)
                 (A) (A) (A) (A) (A) (A) (A) (A) (A) (A) (A) (A)
                 (A) (A) (A) (A) (A) (A) (A) (A) (A) (A) (A) (A)
                 (A) (A) (A) (A) (A) (A) (A) (A) (A) (A) (A) (A)
                 (A) (A) (A) (A) (A) (A) (A) (A) (A) (A) (A) (A)
                 (A) (A) (A) (A) (A) (A) (A) (A) (A) (A) (A) (A)
                 (A) (A) (A) (A) (A) (A) (A) (A) (A) (A) (A) (A)
                 (A) (A) (A) (A) (A) (A) (A) (A) (A) (A) (A) (A)
                 (A) (A) (A) (A) (A) (A) (A) (A) (A) (A) (A) (A)
                 (A) (A) (A) (A) (A) (A) (A) (A) (A) (A) (A) (A)
                 (A) (A) (A) (A) (A) (A) (A) (A) (A) (A) (A) (A)
                 (A) (A) (A) (A) (A) (A) (A) (A) (A) (A) (A) (A)
                 (A) (A) (A) (A) (A) (A) (A) (A) (A) (A) (A) (A)
                 (A) (A) (A) (A) (A) (A) (A) (A) (A) (A) (A) (A)
                 (A) (A) (A) (A) (A) (A) (A) (A) (A) (A) (A) (A)
                 (A) (A) (A) (A) (A) (A) (A) (A) (A) (A) (A) (A)
                 (A) (A) (A) (A) (A) (A) (A) (A) (A) (A) (A) (A)
                 (A) (A) (A) (A) (A) (A) (A) (A) (A) (A)
 The electronic state is 1-A.
 Alpha  occ. eigenvalues --  -20.61207 -20.61155 -20.60367 -20.60354 -15.86237
 Alpha  occ. eigenvalues --  -15.85419 -11.31805 -11.30809 -11.28429 -11.28398
 Alpha  occ. eigenvalues --  -11.28172 -11.27493 -11.27476 -11.27407 -11.27338
 Alpha  occ. eigenvalues --  -11.27150 -11.26455 -11.26386  -1.60253  -1.59428
 Alpha  occ. eigenvalues --   -1.39800  -1.38987  -1.20023  -1.18977  -1.09354
 Alpha  occ. eigenvalues --   -1.08376  -1.05474  -1.04427  -0.96161  -0.95218
 Alpha  occ. eigenvalues --   -0.86830  -0.85830  -0.82996  -0.82086  -0.78027
 Alpha  occ. eigenvalues --   -0.77110  -0.72458  -0.71654  -0.71588  -0.71108
 Alpha  occ. eigenvalues --   -0.70727  -0.70147  -0.65658  -0.65448  -0.64670
 Alpha  occ. eigenvalues --   -0.64494  -0.62849  -0.61758  -0.55910  -0.54953
 Alpha  occ. eigenvalues --   -0.53833  -0.53549  -0.52646  -0.52497  -0.49232
 Alpha  occ. eigenvalues --   -0.49196  -0.48409  -0.48396  -0.45154  -0.44392
 Alpha  occ. eigenvalues --   -0.38030  -0.37216  -0.36843  -0.35838
 Alpha virt. eigenvalues --    0.04447   0.05490   0.10386   0.11783   0.15853
 Alpha virt. eigenvalues --    0.16926   0.20165   0.21988   0.25551   0.27268
 Alpha virt. eigenvalues --    0.28054   0.29458   0.30082   0.31184   0.31930
 Alpha virt. eigenvalues --    0.33366   0.34039   0.35373   0.36285   0.37778
 Alpha virt. eigenvalues --    0.42492   0.43303   0.43956   0.45209   0.45593
 Alpha virt. eigenvalues --    0.46977   0.48886   0.49657   0.50440   0.51493
 Alpha virt. eigenvalues --    0.55843   0.57466   0.66455   0.67405   0.67858
 Alpha virt. eigenvalues --    0.68783   0.69705   0.70529   0.71166   0.72867
 Alpha virt. eigenvalues --    0.75484   0.77000   0.77861   0.78199   0.78626
 Alpha virt. eigenvalues --    0.78793   0.79125   0.79754   0.80098   0.80607
 Alpha virt. eigenvalues --    0.81156   0.81526   0.82544   0.84312   0.85269
 Alpha virt. eigenvalues --    0.86179   0.86622   0.87749   0.89241   0.92458
 Alpha virt. eigenvalues --    0.93875   0.94137   0.95771   0.99077   1.00369
 Alpha virt. eigenvalues --    1.01907   1.02357   1.03280   1.03874   1.05687
 Alpha virt. eigenvalues --    1.06814   1.07010   1.07802   1.07934   1.08494
 Alpha virt. eigenvalues --    1.09324   1.10813   1.12220   1.14402   1.15038
 Alpha virt. eigenvalues --    1.16459   1.17445   1.18005   1.18721   1.19626
 Alpha virt. eigenvalues --    1.20899   1.23167   1.23387   1.23941   1.24586
 Alpha virt. eigenvalues --    1.27102   1.27423   1.28607   1.28985   1.30173
 Alpha virt. eigenvalues --    1.30784   1.32047   1.32736   1.34546   1.35737
 Alpha virt. eigenvalues --    1.39627   1.44325   1.45846   1.46497   1.47599
 Alpha virt. eigenvalues --    1.48517   1.52128   1.52898   1.53089   1.54008
 Alpha virt. eigenvalues --    1.60513   1.60967   1.64924   1.65825   1.66190
 Alpha virt. eigenvalues --    1.66438   1.67040   1.67483   1.67916   1.69277
 Alpha virt. eigenvalues --    1.72039   1.72631   1.72860   1.73513   1.73806
 Alpha virt. eigenvalues --    1.74606   1.74913   1.76127   1.96650   1.97479
 Alpha virt. eigenvalues --    1.98847   1.99361   1.99876   2.00614   2.03945
 Alpha virt. eigenvalues --    2.04092   2.04927   2.05235   2.09707   2.10477
 Alpha virt. eigenvalues --    2.11886   2.12235   2.13436   2.14323   2.21060
 Alpha virt. eigenvalues --    2.21334   2.22183   2.22301   2.24376   2.25113
 Alpha virt. eigenvalues --    2.26579   2.28796   2.32222   2.33313   2.35813
 Alpha virt. eigenvalues --    2.36914   2.37356   2.38227   2.42508   2.42842
 Alpha virt. eigenvalues --    2.43637   2.43755   2.44206   2.44892   2.45388
 Alpha virt. eigenvalues --    2.46224   2.46525   2.47391   2.57525   2.57990
 Alpha virt. eigenvalues --    2.58519   2.58922   2.59164   2.60173   2.69896
 Alpha virt. eigenvalues --    2.71102   2.81186   2.82059   2.83140   2.83952
 Alpha virt. eigenvalues --    2.91146   2.91322   2.91459   2.92330   2.92492
 Alpha virt. eigenvalues --    2.93026   2.99225   3.00284   3.04015   3.04265
 Alpha virt. eigenvalues --    3.05119   3.05319   3.06236   3.07778   3.09936
 Alpha virt. eigenvalues --    3.11254   3.23033   3.23955   3.24306   3.25097
 Alpha virt. eigenvalues --    3.27231   3.28085   3.42702   3.43507   3.52438
 Alpha virt. eigenvalues --    3.53356   3.76373   3.77408   4.12802   4.13512
 Alpha virt. eigenvalues --    4.28220   4.29260   4.37594   4.38363   4.47666
 Alpha virt. eigenvalues --    4.48587   4.50878   4.52063   4.53130   4.53442
 Alpha virt. eigenvalues --    4.71146   4.73146   4.76369   4.77403   5.08457
 Alpha virt. eigenvalues --    5.09653
          Condensed to atoms (all electrons):
               1          2          3          4          5          6
     1  C    4.875685   0.541554  -0.045564  -0.028816  -0.045646   0.542810
     2  C    0.541554   4.945344   0.517493  -0.039756  -0.030332  -0.043900
     3  C   -0.045564   0.517493   4.936192   0.547471  -0.052853  -0.030616
     4  C   -0.028816  -0.039756   0.547471   4.823003   0.547902  -0.039964
     5  C   -0.045646  -0.030332  -0.052853   0.547902   4.921331   0.521242
     6  C    0.542810  -0.043900  -0.030616  -0.039964   0.521242   4.934428
     7  H    0.381339  -0.028065   0.002195   0.000196   0.002182  -0.027722
     8  H   -0.027068   0.382741  -0.028119   0.001580   0.000196   0.002332
     9  H    0.001891  -0.025295   0.366098  -0.018202   0.002555  -0.000064
    10  H    0.001936  -0.000075   0.002651  -0.019483   0.368201  -0.024074
    11  H   -0.027543   0.002351   0.000194   0.001564  -0.027245   0.382546
    12  N   -0.000005   0.001567  -0.044650   0.243266  -0.044452   0.001557
    13  O   -0.000004  -0.000027   0.003732  -0.088443   0.004177   0.000782
    14  O   -0.000006   0.000811   0.004577  -0.088309   0.003702  -0.000025
    15  C    0.000001  -0.000010  -0.000023   0.000048  -0.000000  -0.000000
    16  C   -0.000000   0.000000   0.000003   0.000001  -0.000000   0.000000
    17  C   -0.000000  -0.000000   0.000002  -0.000001   0.000000   0.000000
    18  C   -0.000000   0.000002   0.000045  -0.000004  -0.000000  -0.000000
    19  C    0.000001  -0.000003  -0.000708  -0.000026   0.000001  -0.000000
    20  C   -0.000021  -0.001252  -0.004116  -0.000091   0.000058   0.000003
    21  H   -0.000000  -0.000004  -0.000006   0.000012   0.000003   0.000000
    22  H    0.000000   0.000000   0.000000   0.000000  -0.000000  -0.000000
    23  H   -0.000000  -0.000000   0.000000  -0.000000   0.000000   0.000000
    24  H   -0.000000  -0.000021   0.000068   0.000014   0.000000  -0.000000
    25  H    0.000093   0.002351   0.002728  -0.000043  -0.000088  -0.000025
    26  N    0.000000  -0.000000  -0.000000  -0.000000   0.000000  -0.000000
    27  O   -0.000000   0.000000   0.000000  -0.000000  -0.000000   0.000000
    28  O   -0.000000  -0.000000  -0.000000   0.000000   0.000000   0.000000
               7          8          9         10         11         12
     1  C    0.381339  -0.027068   0.001891   0.001936  -0.027543  -0.000005
     2  C   -0.028065   0.382741  -0.025295  -0.000075   0.002351   0.001567
     3  C    0.002195  -0.028119   0.366098   0.002651   0.000194  -0.044650
     4  C    0.000196   0.001580  -0.018202  -0.019483   0.001564   0.243266
     5  C    0.002182   0.000196   0.002555   0.368201  -0.027245  -0.044452
     6  C   -0.027722   0.002332  -0.000064  -0.024074   0.382546   0.001557
     7  H    0.444553  -0.001187  -0.000070  -0.000070  -0.001187   0.000002
     8  H   -0.001187   0.446253  -0.001039   0.000007  -0.000093  -0.000049
     9  H   -0.000070  -0.001039   0.388864  -0.000074   0.000007  -0.005253
    10  H   -0.000070   0.000007  -0.000074   0.390817  -0.001100  -0.005427
    11  H   -0.001187  -0.000093   0.000007  -0.001100   0.445036  -0.000049
    12  N    0.000002  -0.000049  -0.005253  -0.005427  -0.000049   5.737464
    13  O    0.000000   0.000000   0.000037   0.009174  -0.000001   0.314254
    14  O   -0.000000  -0.000000   0.007984   0.000046   0.000000   0.313839
    15  C    0.000000   0.000000   0.000023   0.000000  -0.000000   0.000005
    16  C   -0.000000   0.000000  -0.000011  -0.000000   0.000000  -0.000003
    17  C   -0.000000   0.000000  -0.000005  -0.000000   0.000000  -0.000001
    18  C    0.000000   0.000000   0.000050  -0.000000  -0.000000   0.000010
    19  C    0.000000  -0.000004   0.001925   0.000000  -0.000000   0.000052
    20  C    0.000000  -0.000007   0.000633   0.000001  -0.000000   0.000004
    21  H    0.000000  -0.000000  -0.000000   0.000000   0.000000   0.000000
    22  H    0.000000  -0.000000   0.000000  -0.000000   0.000000  -0.000000
    23  H   -0.000000  -0.000000  -0.000000  -0.000000   0.000000  -0.000000
    24  H   -0.000000   0.000006   0.000450  -0.000000  -0.000000  -0.000001
    25  H   -0.000000   0.000071  -0.000500   0.000000  -0.000000  -0.000017
    26  N    0.000000  -0.000000  -0.000001   0.000000   0.000000   0.000000
    27  O   -0.000000  -0.000000  -0.000005   0.000000   0.000000  -0.000000
    28  O   -0.000000  -0.000000  -0.000000   0.000000   0.000000  -0.000000
              13         14         15         16         17         18
     1  C   -0.000004  -0.000006   0.000001  -0.000000  -0.000000  -0.000000
     2  C   -0.000027   0.000811  -0.000010   0.000000  -0.000000   0.000002
     3  C    0.003732   0.004577  -0.000023   0.000003   0.000002   0.000045
     4  C   -0.088443  -0.088309   0.000048   0.000001  -0.000001  -0.000004
     5  C    0.004177   0.003702  -0.000000  -0.000000   0.000000  -0.000000
     6  C    0.000782  -0.000025  -0.000000   0.000000   0.000000  -0.000000
     7  H    0.000000  -0.000000   0.000000  -0.000000  -0.000000   0.000000
     8  H    0.000000  -0.000000   0.000000   0.000000   0.000000   0.000000
     9  H    0.000037   0.007984   0.000023  -0.000011  -0.000005   0.000050
    10  H    0.009174   0.000046   0.000000  -0.000000  -0.000000  -0.000000
    11  H   -0.000001   0.000000  -0.000000   0.000000   0.000000  -0.000000
    12  N    0.314254   0.313839   0.000005  -0.000003  -0.000001   0.000010
    13  O    8.304419  -0.087481  -0.000000  -0.000000   0.000000  -0.000000
    14  O   -0.087481   8.299795  -0.000061  -0.000004   0.000009  -0.000118
    15  C   -0.000000  -0.000061   4.872906   0.543209  -0.044925  -0.029219
    16  C   -0.000000  -0.000004   0.543209   4.927711   0.522289  -0.039081
    17  C    0.000000   0.000009  -0.044925   0.522289   4.915994   0.548855
    18  C   -0.000000  -0.000118  -0.029219  -0.039081   0.548855   4.806136
    19  C    0.000000   0.000515  -0.044020  -0.030694  -0.053303   0.550111
    20  C   -0.000005   0.000226   0.542986  -0.043308  -0.030584  -0.037820
    21  H   -0.000000  -0.000001   0.381294  -0.027759   0.002177   0.000223
    22  H    0.000000  -0.000000  -0.027865   0.382429  -0.027212   0.001541
    23  H    0.000000   0.000000   0.001932  -0.024159   0.368103  -0.019286
    24  H   -0.000000  -0.000046   0.001929  -0.000058   0.002658  -0.017585
    25  H    0.000001  -0.000046  -0.026463   0.002350   0.000191   0.001679
    26  N   -0.000000  -0.000005   0.000017   0.001524  -0.044020   0.245144
    27  O   -0.000000  -0.000000  -0.000004  -0.000028   0.003727  -0.087772
    28  O   -0.000000  -0.000000  -0.000004   0.000770   0.003857  -0.087450
              19         20         21         22         23         24
     1  C    0.000001  -0.000021  -0.000000   0.000000  -0.000000  -0.000000
     2  C   -0.000003  -0.001252  -0.000004   0.000000  -0.000000  -0.000021
     3  C   -0.000708  -0.004116  -0.000006   0.000000   0.000000   0.000068
     4  C   -0.000026  -0.000091   0.000012   0.000000  -0.000000   0.000014
     5  C    0.000001   0.000058   0.000003  -0.000000   0.000000   0.000000
     6  C   -0.000000   0.000003   0.000000  -0.000000   0.000000  -0.000000
     7  H    0.000000   0.000000   0.000000   0.000000  -0.000000  -0.000000
     8  H   -0.000004  -0.000007  -0.000000  -0.000000  -0.000000   0.000006
     9  H    0.001925   0.000633  -0.000000   0.000000  -0.000000   0.000450
    10  H    0.000000   0.000001   0.000000  -0.000000  -0.000000  -0.000000
    11  H   -0.000000  -0.000000   0.000000   0.000000   0.000000  -0.000000
    12  N    0.000052   0.000004   0.000000  -0.000000  -0.000000  -0.000001
    13  O    0.000000  -0.000005  -0.000000   0.000000   0.000000  -0.000000
    14  O    0.000515   0.000226  -0.000001  -0.000000   0.000000  -0.000046
    15  C   -0.044020   0.542986   0.381294  -0.027865   0.001932   0.001929
    16  C   -0.030694  -0.043308  -0.027759   0.382429  -0.024159  -0.000058
    17  C   -0.053303  -0.030584   0.002177  -0.027212   0.368103   0.002658
    18  C    0.550111  -0.037820   0.000223   0.001541  -0.019286  -0.017585
    19  C    4.918249   0.516711   0.002164   0.000210   0.002639   0.367983
    20  C    0.516711   4.947392  -0.028473   0.002398  -0.000056  -0.026250
    21  H    0.002164  -0.028473   0.449430  -0.001209  -0.000072  -0.000073
    22  H    0.000210   0.002398  -0.001209   0.447677  -0.001105   0.000007
    23  H    0.002639  -0.000056  -0.000072  -0.001105   0.392457  -0.000078
    24  H    0.367983  -0.026250  -0.000073   0.000007  -0.000078   0.402239
    25  H   -0.029279   0.378764  -0.001204  -0.000094   0.000007  -0.001161
    26  N   -0.044496   0.001458   0.000002  -0.000049  -0.005412  -0.005576
    27  O    0.003914   0.000787   0.000000   0.000000   0.000047   0.009402
    28  O    0.003781  -0.000028   0.000000  -0.000001   0.009024   0.000049
              25         26         27         28
     1  C    0.000093   0.000000  -0.000000  -0.000000
     2  C    0.002351  -0.000000   0.000000  -0.000000
     3  C    0.002728  -0.000000   0.000000  -0.000000
     4  C   -0.000043  -0.000000  -0.000000   0.000000
     5  C   -0.000088   0.000000  -0.000000   0.000000
     6  C   -0.000025  -0.000000   0.000000   0.000000
     7  H   -0.000000   0.000000  -0.000000  -0.000000
     8  H    0.000071  -0.000000  -0.000000  -0.000000
     9  H   -0.000500  -0.000001  -0.000005  -0.000000
    10  H    0.000000   0.000000   0.000000   0.000000
    11  H   -0.000000   0.000000   0.000000   0.000000
    12  N   -0.000017   0.000000  -0.000000  -0.000000
    13  O    0.000001  -0.000000  -0.000000  -0.000000
    14  O   -0.000046  -0.000005  -0.000000  -0.000000
    15  C   -0.026463   0.000017  -0.000004  -0.000004
    16  C    0.002350   0.001524  -0.000028   0.000770
    17  C    0.000191  -0.044020   0.003727   0.003857
    18  C    0.001679   0.245144  -0.087772  -0.087450
    19  C   -0.029279  -0.044496   0.003914   0.003781
    20  C    0.378764   0.001458   0.000787  -0.000028
    21  H   -0.001204   0.000002   0.000000   0.000000
    22  H   -0.000094  -0.000049   0.000000  -0.000001
    23  H    0.000007  -0.005412   0.000047   0.009024
    24  H   -0.001161  -0.005576   0.009402   0.000049
    25  H    0.452330  -0.000050  -0.000001   0.000000
    26  N   -0.000050   5.732072   0.314924   0.315504
    27  O   -0.000001   0.314924   8.305735  -0.087597
    28  O    0.000000   0.315504  -0.087597   8.301760
 Mulliken charges:
               1
     1  C   -0.170638
     2  C   -0.225474
     3  C   -0.176796
     4  C    0.158080
     5  C   -0.170933
     6  C   -0.219307
     7  H    0.227833
     8  H    0.224377
     9  H    0.280006
    10  H    0.277470
    11  H    0.225519
    12  N    0.487884
    13  O   -0.460615
    14  O   -0.455402
    15  C   -0.171757
    16  C   -0.215180
    17  C   -0.167812
    18  C    0.164537
    19  C   -0.165723
    20  C   -0.219409
    21  H    0.223495
    22  H    0.223272
    23  H    0.275961
    24  H    0.266042
    25  H    0.218404
    26  N    0.488963
    27  O   -0.463129
    28  O   -0.459666
 Sum of Mulliken charges =  -0.00000
 Mulliken charges with hydrogens summed into heavy atoms:
               1
     1  C    0.057194
     2  C   -0.001096
     3  C    0.103210
     4  C    0.158080
     5  C    0.106537
     6  C    0.006212
    12  N    0.487884
    13  O   -0.460615
    14  O   -0.455402
    15  C    0.051738
    16  C    0.008093
    17  C    0.108149
    18  C    0.164537
    19  C    0.100319
    20  C   -0.001005
    26  N    0.488963
    27  O   -0.463129
    28  O   -0.459666
 Electronic spatial extent (au):  <R**2>=           5664.1294
 Charge=              0.0000 electrons
 Dipole moment (field-independent basis, Debye):
    X=              6.1807    Y=             -3.2040    Z=              5.2990  Tot=              8.7490
 Quadrupole moment (field-independent basis, Debye-Ang):
   XX=           -104.1785   YY=           -105.0157   ZZ=           -104.7429
   XY=            -12.3470   XZ=             -8.6324   YZ=              4.2517
 Traceless Quadrupole moment (field-independent basis, Debye-Ang):
   XX=              0.4672   YY=             -0.3700   ZZ=             -0.0972
   XY=            -12.3470   XZ=             -8.6324   YZ=              4.2517
 Octapole moment (field-independent basis, Debye-Ang**2):
  XXX=            165.2193  YYY=            -26.0789  ZZZ=              3.2858  XYY=             -1.9122
  XXY=              2.7232  XXZ=             67.2747  XZZ=              2.6650  YZZ=             19.1902
  YYZ=              6.5129  XYZ=             -1.9248
 Hexadecapole moment (field-independent basis, Debye-Ang**3):
 XXXX=          -5535.6558 YYYY=          -1040.1090 ZZZZ=           -879.5658 XXXY=            -68.6646
 XXXZ=            -61.9480 YYYX=            -76.2246 YYYZ=             20.9737 ZZZX=             -2.5938
 ZZZY=             14.0829 XXYY=          -1033.0301 XXZZ=          -1155.1032 YYZZ=           -327.9912
 XXYZ=             -9.6317 YYXZ=             11.7248 ZZXY=            -24.8291
 N-N= 1.202522811659D+03 E-N=-4.438016283501D+03  KE= 8.657003506857D+02
 Leave Link  601 at Thu May  6 01:52:28 2021, MaxMem=   524288000 cpu:               0.4 elap:               0.4
 (Enter /opt/gaussian/g16_legacy/l9999.exe)
 1\1\GINC-TRUENO92\SP\RMP2-FC\6-31G(d)\C12H10N2O4\JRAMOS\06-May-2021\0\
 \#p 6-31g* mp2\\Input file generated by CHIRIPA (05-May-2021 14:57:24)
 \\0,1\C,0,1.914143,0.,0.\C,0,1.214143,1.211,0.\C,0,-0.183857,1.223,0.\
 C,0,-0.852857,0.,0.\C,0,-0.183857,-1.223,0.\C,0,1.214143,-1.211,0.\H,0
 ,3.000143,0.,0.\H,0,1.755143,2.153,0.\H,0,-0.750857,2.146,0.\H,0,-0.75
 0857,-2.146,0.\H,0,1.755143,-2.153,0.\N,0,-2.332857,0.,0.\O,0,-2.89885
 7,-1.091,0.\O,0,-2.898857,1.091,0.\C,0,-1.947213,2.004881,-4.005868\C,
 0,-3.231748,2.395474,-4.398207\C,0,-3.870239,3.469052,-3.770267\C,0,-3
 .191934,4.132662,-2.749085\C,0,-1.911737,3.767371,-2.335628\C,0,-1.292
 462,2.690866,-2.977644\H,0,-1.458682,1.169763,-4.499134\H,0,-3.742637,
 1.864565,-5.196437\H,0,-4.864344,3.792495,-4.054096\H,0,-1.427756,4.31
 5956,-1.536732\H,0,-0.29484,2.389733,-2.670863\N,0,-3.857704,5.27076,-
 2.076862\O,0,-3.238757,5.839066,-1.179884\O,0,-4.985876,5.572945,-2.45
 9681\\Version=EM64L-G16RevA.03\State=1-A\HF=-868.335765\MP2=-870.93922
 63\RMSD=4.289e-09\PG=C01 [X(C12H10N2O4)]\\@


 TIME GOES, YOU SAY?  AH NO!
 ALAS, TIME STAYS, WE GO.
    -- A. DOBSON (1840-1921)
 Job cpu time:       0 days  0 hours  5 minutes 14.9 seconds.
 Elapsed time:       0 days  0 hours  2 minutes 39.0 seconds.
 File lengths (MBytes):  RWF=     50 Int=      0 D2E=      0 Chk=      7 Scr=      1
 Normal termination of Gaussian 16 at Thu May  6 01:52:29 2021.
