 Entering Gaussian System, Link 0=/opt/gaussian/g16_legacy/g16
 Input=gaussian_01936_1_1.com
 Output=gaussian_01936_1_1.log
 Initial command:
 /opt/gaussian/g16_legacy/l1.exe "/scratch-local/jramos/2588893/Gau-3843.inp" -scrdir="/scratch-local/jramos/2588893/"
 Entering Link 1 = /opt/gaussian/g16_legacy/l1.exe PID=      3845.
  
 Copyright (c) 1988,1990,1992,1993,1995,1998,2003,2009,2016,
            Gaussian, Inc.  All Rights Reserved.
  
 This is part of the Gaussian(R) 16 program.  It is based on
 the Gaussian(R) 09 system (copyright 2009, Gaussian, Inc.),
 the Gaussian(R) 03 system (copyright 2003, Gaussian, Inc.),
 the Gaussian(R) 98 system (copyright 1998, Gaussian, Inc.),
 the Gaussian(R) 94 system (copyright 1995, Gaussian, Inc.),
 the Gaussian 92(TM) system (copyright 1992, Gaussian, Inc.),
 the Gaussian 90(TM) system (copyright 1990, Gaussian, Inc.),
 the Gaussian 88(TM) system (copyright 1988, Gaussian, Inc.),
 the Gaussian 86(TM) system (copyright 1986, Carnegie Mellon
 University), and the Gaussian 82(TM) system (copyright 1983,
 Carnegie Mellon University). Gaussian is a federally registered
 trademark of Gaussian, Inc.
  
 This software contains proprietary and confidential information,
 including trade secrets, belonging to Gaussian, Inc.
  
 This software is provided under written license and may be
 used, copied, transmitted, or stored only in accord with that
 written license.
  
 The following legend is applicable only to US Government
 contracts under FAR:
  
                    RESTRICTED RIGHTS LEGEND
  
 Use, reproduction and disclosure by the US Government is
 subject to restrictions as set forth in subparagraphs (a)
 and (c) of the Commercial Computer Software - Restricted
 Rights clause in FAR 52.227-19.
  
 Gaussian, Inc.
 340 Quinnipiac St., Bldg. 40, Wallingford CT 06492
  
  
 ---------------------------------------------------------------
 Warning -- This program may not be used in any manner that
 competes with the business of Gaussian, Inc. or will provide
 assistance to any competitor of Gaussian, Inc.  The licensee
 of this program is prohibited from giving any competitor of
 Gaussian, Inc. access to this program.  By using this program,
 the user acknowledges that Gaussian, Inc. is engaged in the
 business of creating and licensing software in the field of
 computational chemistry and represents and warrants to the
 licensee that it is not a competitor of Gaussian, Inc. and that
 it will not use this program in any manner prohibited above.
 ---------------------------------------------------------------
  

 Cite this work as:
 Gaussian 16, Revision A.03,
 M. J. Frisch, G. W. Trucks, H. B. Schlegel, G. E. Scuseria, 
 M. A. Robb, J. R. Cheeseman, G. Scalmani, V. Barone, 
 G. A. Petersson, H. Nakatsuji, X. Li, M. Caricato, A. V. Marenich, 
 J. Bloino, B. G. Janesko, R. Gomperts, B. Mennucci, H. P. Hratchian, 
 J. V. Ortiz, A. F. Izmaylov, J. L. Sonnenberg, D. Williams-Young, 
 F. Ding, F. Lipparini, F. Egidi, J. Goings, B. Peng, A. Petrone, 
 T. Henderson, D. Ranasinghe, V. G. Zakrzewski, J. Gao, N. Rega, 
 G. Zheng, W. Liang, M. Hada, M. Ehara, K. Toyota, R. Fukuda, 
 J. Hasegawa, M. Ishida, T. Nakajima, Y. Honda, O. Kitao, H. Nakai, 
 T. Vreven, K. Throssell, J. A. Montgomery, Jr., J. E. Peralta, 
 F. Ogliaro, M. J. Bearpark, J. J. Heyd, E. N. Brothers, K. N. Kudin, 
 V. N. Staroverov, T. A. Keith, R. Kobayashi, J. Normand, 
 K. Raghavachari, A. P. Rendell, J. C. Burant, S. S. Iyengar, 
 J. Tomasi, M. Cossi, J. M. Millam, M. Klene, C. Adamo, R. Cammi, 
 J. W. Ochterski, R. L. Martin, K. Morokuma, O. Farkas, 
 J. B. Foresman, and D. J. Fox, Gaussian, Inc., Wallingford CT, 2016.
 
 ******************************************
 Gaussian 16:  EM64L-G16RevA.03 25-Dec-2016
                 5-May-2021 
 ******************************************
 %chk=gaussian_01936_1_1.chk
 %nproc=2
 Will use up to    2 processors via shared memory.
 %mem=4000Mb
 -------------
 #p 6-31g* mp2
 -------------
 1/38=1,172=1/1;
 2/12=2,17=6,18=5,40=1/2;
 3/5=1,6=6,7=1,11=9,25=1,30=1/1,2,3;
 4//1;
 5/5=2,38=5/2;
 8/10=2/1;
 9/16=-3/6;
 6/7=2,8=2,9=2,10=2/1;
 99/5=1,9=1/99;
 Leave Link    1 at Wed May  5 23:00:45 2021, MaxMem=   524288000 cpu:               0.1 elap:               0.1
 (Enter /opt/gaussian/g16_legacy/l101.exe)
 ------------------------------------------------------
 Input file generated by CHIRIPA (05-May-2021 14:51:10)
 ------------------------------------------------------
 Symbolic Z-matrix:
 Charge =  0 Multiplicity = 1
 C                    -0.666    -0.374     0. 
 C                    -1.882     0.553     0. 
 C                    -3.207    -0.21      0. 
 H                    -0.713    -1.03     -0.88 
 H                    -0.713    -1.029     0.881 
 H                    -1.832     1.207    -0.88 
 H                    -1.832     1.207     0.88 
 H                    -3.283    -0.85      0.885 
 H                    -3.283    -0.85     -0.885 
 H                    -4.063     0.472     0. 
 C                     0.666     0.374     0. 
 C                     1.882    -0.553     0. 
 C                     3.207     0.21      0. 
 H                     0.713     1.029    -0.881 
 H                     0.713     1.03      0.88 
 H                     1.832    -1.207    -0.88 
 H                     1.832    -1.207     0.88 
 H                     3.283     0.85      0.885 
 H                     3.283     0.85     -0.885 
 H                     4.063    -0.472     0. 
 C                    -1.95441  -0.48354   5.12099 
 C                    -3.22086  -0.50769   4.26454 
 C                    -4.1134   -1.71274   4.56293 
 H                    -1.389    -1.41062   4.95436 
 H                    -2.23811  -0.47697   6.18253 
 H                    -2.93488  -0.51282   3.20492 
 H                    -3.78323   0.41964   4.43309 
 H                    -4.42727  -1.70935   5.61178 
 H                    -3.5741   -2.64711   4.37662 
 H                    -5.01301  -1.71017   3.93959 
 C                    -1.05193   0.71522   4.83425 
 C                     0.21452   0.73937   5.6907 
 C                     1.10705   1.94442   5.39231 
 H                    -0.76824   0.70865   3.77271 
 H                    -1.61735   1.6423    5.00089 
 H                     0.77689  -0.18796   5.52215 
 H                    -0.07147   0.7445    6.75032 
 H                     0.56775   2.87879   5.57862 
 H                     1.42093   1.94103   4.34346 
 H                     2.00666   1.94185   6.01565 
 
 ITRead=  0  0  0  0  0  0  0  0  0  0  0  0  0  0  0  0  0  0  0  0
 ITRead=  0  0  0  0  0  0  0  0  0  0  0  0  0  0  0  0  0  0  0  0
 MicOpt= -1 -1 -1 -1 -1 -1 -1 -1 -1 -1 -1 -1 -1 -1 -1 -1 -1 -1 -1 -1
 MicOpt= -1 -1 -1 -1 -1 -1 -1 -1 -1 -1 -1 -1 -1 -1 -1 -1 -1 -1 -1 -1
 NAtoms=     40 NQM=       40 NQMF=       0 NMMI=      0 NMMIF=      0
                NMic=       0 NMicF=      0.
                    Isotopes and Nuclear Properties:
 (Nuclear quadrupole moments (NQMom) in fm**2, nuclear magnetic moments (NMagM)
  in nuclear magnetons)

  Atom         1           2           3           4           5           6           7           8           9          10
 IAtWgt=          12          12          12           1           1           1           1           1           1           1
 AtmWgt=  12.0000000  12.0000000  12.0000000   1.0078250   1.0078250   1.0078250   1.0078250   1.0078250   1.0078250   1.0078250
 NucSpn=           0           0           0           1           1           1           1           1           1           1
 AtZEff=  -0.0000000  -0.0000000  -0.0000000  -0.0000000  -0.0000000  -0.0000000  -0.0000000  -0.0000000  -0.0000000  -0.0000000
 NQMom=    0.0000000   0.0000000   0.0000000   0.0000000   0.0000000   0.0000000   0.0000000   0.0000000   0.0000000   0.0000000
 NMagM=    0.0000000   0.0000000   0.0000000   2.7928460   2.7928460   2.7928460   2.7928460   2.7928460   2.7928460   2.7928460
 AtZNuc=   6.0000000   6.0000000   6.0000000   1.0000000   1.0000000   1.0000000   1.0000000   1.0000000   1.0000000   1.0000000

  Atom        11          12          13          14          15          16          17          18          19          20
 IAtWgt=          12          12          12           1           1           1           1           1           1           1
 AtmWgt=  12.0000000  12.0000000  12.0000000   1.0078250   1.0078250   1.0078250   1.0078250   1.0078250   1.0078250   1.0078250
 NucSpn=           0           0           0           1           1           1           1           1           1           1
 AtZEff=  -0.0000000  -0.0000000  -0.0000000  -0.0000000  -0.0000000  -0.0000000  -0.0000000  -0.0000000  -0.0000000  -0.0000000
 NQMom=    0.0000000   0.0000000   0.0000000   0.0000000   0.0000000   0.0000000   0.0000000   0.0000000   0.0000000   0.0000000
 NMagM=    0.0000000   0.0000000   0.0000000   2.7928460   2.7928460   2.7928460   2.7928460   2.7928460   2.7928460   2.7928460
 AtZNuc=   6.0000000   6.0000000   6.0000000   1.0000000   1.0000000   1.0000000   1.0000000   1.0000000   1.0000000   1.0000000

  Atom        21          22          23          24          25          26          27          28          29          30
 IAtWgt=          12          12          12           1           1           1           1           1           1           1
 AtmWgt=  12.0000000  12.0000000  12.0000000   1.0078250   1.0078250   1.0078250   1.0078250   1.0078250   1.0078250   1.0078250
 NucSpn=           0           0           0           1           1           1           1           1           1           1
 AtZEff=  -0.0000000  -0.0000000  -0.0000000  -0.0000000  -0.0000000  -0.0000000  -0.0000000  -0.0000000  -0.0000000  -0.0000000
 NQMom=    0.0000000   0.0000000   0.0000000   0.0000000   0.0000000   0.0000000   0.0000000   0.0000000   0.0000000   0.0000000
 NMagM=    0.0000000   0.0000000   0.0000000   2.7928460   2.7928460   2.7928460   2.7928460   2.7928460   2.7928460   2.7928460
 AtZNuc=   6.0000000   6.0000000   6.0000000   1.0000000   1.0000000   1.0000000   1.0000000   1.0000000   1.0000000   1.0000000

  Atom        31          32          33          34          35          36          37          38          39          40
 IAtWgt=          12          12          12           1           1           1           1           1           1           1
 AtmWgt=  12.0000000  12.0000000  12.0000000   1.0078250   1.0078250   1.0078250   1.0078250   1.0078250   1.0078250   1.0078250
 NucSpn=           0           0           0           1           1           1           1           1           1           1
 AtZEff=  -0.0000000  -0.0000000  -0.0000000  -0.0000000  -0.0000000  -0.0000000  -0.0000000  -0.0000000  -0.0000000  -0.0000000
 NQMom=    0.0000000   0.0000000   0.0000000   0.0000000   0.0000000   0.0000000   0.0000000   0.0000000   0.0000000   0.0000000
 NMagM=    0.0000000   0.0000000   0.0000000   2.7928460   2.7928460   2.7928460   2.7928460   2.7928460   2.7928460   2.7928460
 AtZNuc=   6.0000000   6.0000000   6.0000000   1.0000000   1.0000000   1.0000000   1.0000000   1.0000000   1.0000000   1.0000000
 Leave Link  101 at Wed May  5 23:00:45 2021, MaxMem=   524288000 cpu:               0.4 elap:               0.2
 (Enter /opt/gaussian/g16_legacy/l202.exe)
                          Input orientation:                          
 ---------------------------------------------------------------------
 Center     Atomic      Atomic             Coordinates (Angstroms)
 Number     Number       Type             X           Y           Z
 ---------------------------------------------------------------------
      1          6           0       -0.666000   -0.374000    0.000000
      2          6           0       -1.882000    0.553000    0.000000
      3          6           0       -3.207000   -0.210000    0.000000
      4          1           0       -0.713000   -1.030000   -0.880000
      5          1           0       -0.713000   -1.029000    0.881000
      6          1           0       -1.832000    1.207000   -0.880000
      7          1           0       -1.832000    1.207000    0.880000
      8          1           0       -3.283000   -0.850000    0.885000
      9          1           0       -3.283000   -0.850000   -0.885000
     10          1           0       -4.063000    0.472000    0.000000
     11          6           0        0.666000    0.374000    0.000000
     12          6           0        1.882000   -0.553000    0.000000
     13          6           0        3.207000    0.210000    0.000000
     14          1           0        0.713000    1.029000   -0.881000
     15          1           0        0.713000    1.030000    0.880000
     16          1           0        1.832000   -1.207000   -0.880000
     17          1           0        1.832000   -1.207000    0.880000
     18          1           0        3.283000    0.850000    0.885000
     19          1           0        3.283000    0.850000   -0.885000
     20          1           0        4.063000   -0.472000    0.000000
     21          6           0       -1.954414   -0.483541    5.120994
     22          6           0       -3.220863   -0.507692    4.264543
     23          6           0       -4.113399   -1.712739    4.562932
     24          1           0       -1.389000   -1.410624    4.954355
     25          1           0       -2.238108   -0.476969    6.182535
     26          1           0       -2.934881   -0.512819    3.204919
     27          1           0       -3.783232    0.419642    4.433095
     28          1           0       -4.427270   -1.709349    5.611777
     29          1           0       -3.574099   -2.647107    4.376622
     30          1           0       -5.013006   -1.710168    3.939586
     31          6           0       -1.051931    0.715221    4.834247
     32          6           0        0.214518    0.739372    5.690698
     33          6           0        1.107054    1.944419    5.392309
     34          1           0       -0.768238    0.708649    3.772706
     35          1           0       -1.617346    1.642304    5.000886
     36          1           0        0.776886   -0.187961    5.522146
     37          1           0       -0.071465    0.744499    6.750322
     38          1           0        0.567753    2.878788    5.578619
     39          1           0        1.420925    1.941029    4.343464
     40          1           0        2.006661    1.941849    6.015655
 ---------------------------------------------------------------------
                    Distance matrix (angstroms):
                    1          2          3          4          5
     1  C    0.000000
     2  C    1.529047   0.000000
     3  C    2.546287   1.528985   0.000000
     4  H    1.098610   2.155655   2.768905   0.000000
     5  H    1.098815   2.155330   2.768927   1.761000   0.000000
     6  H    2.152561   1.097550   2.161692   2.501266   3.058264
     7  H    2.152561   1.097550   2.161692   3.058420   2.500372
     8  H    2.803300   2.171275   1.094806   3.122903   2.576229
     9  H    2.803300   2.171275   1.094806   2.576301   3.123411
    10  H    3.500761   2.182504   1.094468   3.775302   3.775137
    11  C    1.527654   2.554280   3.916782   2.155750   2.155507
    12  C    2.554280   3.923128   5.100546   2.781358   2.781504
    13  C    3.916782   5.100546   6.427736   4.204569   4.204484
    14  H    2.155507   2.781504   4.204484   2.504587   3.061615
    15  H    2.155750   2.781358   4.204569   3.061809   2.504587
    16  H    2.776381   4.203070   5.211519   2.551148   3.099973
    17  H    2.776381   4.203070   5.211519   3.099347   2.551217
    18  H    4.228002   5.248682   6.635279   4.755801   4.415730
    19  H    4.228002   5.248682   6.635279   4.416157   4.755777
    20  H    4.730015   6.032715   7.274720   4.888347   4.888413
    21  C    5.281722   5.225346   5.279051   6.152370   4.451537
    22  C    4.973080   4.593903   4.274943   5.747043   4.243760
    23  C    5.873426   5.561750   4.888776   6.454018   5.058343
    24  H    5.113018   5.352056   5.412232   5.885707   4.146665
    25  H    6.380115   6.277849   6.263686   7.246461   5.544093
    26  H    3.929198   3.537801   3.230674   4.678760   3.256347
    27  H    5.477165   4.825432   4.514513   6.305297   4.913478
    28  H    6.886389   6.564196   5.935415   7.510026   6.053010
    29  H    5.725284   5.679675   5.022855   6.199435   4.798284
    30  H    6.016822   5.517741   4.586120   6.494697   5.320619
    31  C    4.970442   4.907675   5.373109   5.984421   4.334206
    32  C    5.865062   6.067468   6.707618   6.867681   5.207747
    33  C    6.131540   6.320402   7.233919   7.176463   5.701379
    34  H    3.926308   3.936750   4.585279   4.967255   3.374083
    35  H    5.475345   5.124986   5.564790   6.522566   4.992711
    36  H    5.710572   6.173556   6.809253   6.626935   4.946448
    37  H    6.868141   6.991535   7.503965   7.860167   6.164885
    38  H    6.574478   6.521623   7.410153   7.657200   6.243297
    39  H    5.346054   5.630419   6.701514   6.376929   5.036205
    40  H    6.978136   7.296485   8.246261   7.986144   6.525886
                    6          7          8          9         10
     6  H    0.000000
     7  H    1.760000   0.000000
     8  H    3.074390   2.517275   0.000000
     9  H    2.517275   3.074390   1.770000   0.000000
    10  H    2.508383   2.508383   1.771810   1.771810   0.000000
    11  C    2.776381   2.776381   4.228002   4.228002   4.730015
    12  C    4.203070   4.203070   5.248682   5.248682   6.032715
    13  C    5.211519   5.211519   6.635279   6.635279   7.274720
    14  H    2.551217   3.099973   4.755777   4.415730   4.888413
    15  H    3.099347   2.551148   4.416157   4.755801   4.888347
    16  H    4.387743   4.727567   5.422721   5.127446   6.192291
    17  H    4.727567   4.387743   5.127446   5.422721   6.192291
    18  H    5.422721   5.127446   6.782504   7.009654   7.408767
    19  H    5.127446   5.422721   7.009654   6.782504   7.408767
    20  H    6.192291   6.192291   7.408767   7.408767   8.180649
    21  C    6.235771   4.567159   4.454557   6.162094   5.619944
    22  C    5.597806   4.040327   3.397403   5.161282   4.455931
    23  C    6.584464   5.224332   3.867954   5.577979   5.059246
    24  H    6.409985   4.862980   4.523404   6.164382   5.936344
    25  H    7.271869   5.578311   5.412470   7.154090   6.515713
    26  H    4.567350   3.095056   2.370000   4.118533   3.537517
    27  H    5.714562   4.129373   3.801474   5.490388   4.442223
    28  H    7.575202   6.134348   4.938649   6.652514   6.031834
    29  H    6.746934   5.487751   3.937735   5.567674   5.396543
    30  H    6.469705   5.290533   3.614319   5.197061   4.602685
    31  C    5.788175   4.060348   4.798347   6.335406   5.700494
    32  C    6.897897   5.248783   6.152517   7.615677   7.124092
    33  C    6.965894   5.435325   6.884561   8.153892   7.614097
    34  H    4.798710   3.122129   4.134279   5.517938   5.014456
    35  H    5.900880   4.149370   5.091807   6.605273   5.688558
    36  H    7.052636   5.504700   6.198717   7.613967   7.372526
    37  H    7.844438   6.146061   6.874474   8.435314   7.846875
    38  H    7.089954   5.534502   7.124761   8.397055   7.639208
    39  H    6.197168   4.807900   6.471300   7.566610   7.148228
    40  H    7.926246   6.453702   7.880264   9.132030   8.671179
                   11         12         13         14         15
    11  C    0.000000
    12  C    1.529047   0.000000
    13  C    2.546287   1.528985   0.000000
    14  H    1.098815   2.155330   2.768927   0.000000
    15  H    1.098610   2.155655   2.768905   1.761000   0.000000
    16  H    2.152561   1.097550   2.161692   2.500372   3.058420
    17  H    2.152561   1.097550   2.161692   3.058264   2.501266
    18  H    2.803300   2.171275   1.094806   3.123411   2.576301
    19  H    2.803300   2.171275   1.094806   2.576229   3.122903
    20  H    3.500761   2.182504   1.094468   3.775137   3.775302
    21  C    5.816058   6.399022   7.303819   6.739941   5.233730
    22  C    5.837072   6.650383   7.747182   6.656825   5.412477
    23  C    6.929465   7.623002   8.837732   7.774809   6.661887
    24  H    5.652746   5.998383   6.949480   6.664948   5.193786
    25  H    6.883439   7.429994   8.267095   7.801955   6.252749
    26  H    4.901459   5.785798   6.965391   5.690253   4.592665
    27  H    6.280930   7.259009   8.280074   6.987634   5.763083
    28  H    7.859630   8.522680   9.667369   8.722218   7.504407
    29  H    6.801496   7.301310   8.561611   7.715930   6.642793
    30  H    7.219086   8.024991   9.315357   7.970460   7.046753
    31  C    5.141757   5.795367   6.462483   5.989782   4.341674
    32  C    5.720260   6.069165   6.451297   6.596937   4.845179
    33  C    5.633626   5.992882   6.041107   6.351982   4.620863
    34  H    4.049980   4.780045   5.503134   4.894249   3.265743
    35  H    5.641908   6.486420   7.094693   6.356354   4.773587
    36  H    5.551774   5.643459   6.046315   6.518079   4.799691
    37  H    6.800586   7.146074   7.523355   7.676809   5.929382
    38  H    6.115930   6.680225   6.723767   6.720825   5.051350
    39  H    4.678800   5.029756   5.005218   5.350512   3.650577
    40  H    6.359530   6.513672   6.374027   7.076065   5.374010
                   16         17         18         19         20
    16  H    0.000000
    17  H    1.760000   0.000000
    18  H    3.074390   2.517275   0.000000
    19  H    2.517275   3.074390   1.770000   0.000000
    20  H    2.508383   2.508383   1.771810   1.771810   0.000000
    21  C    7.132479   5.731174   6.866767   8.079654   7.901518
    22  C    7.244776   6.121731   7.454185   8.406031   8.440513
    23  C    8.076450   7.011956   8.648788   9.536997   9.445278
    24  H    6.667533   5.197756   6.595275   7.812559   7.426369
    25  H    8.184016   6.724255   7.765781   9.066065   8.827668
    26  H    6.315980   5.348859   6.775053   7.566159   7.696981
    27  H    7.899732   6.841146   7.918701   8.854320   9.055977
    28  H    9.031832   7.862603   9.398987  10.402242  10.252207
    29  H    7.676711   6.597437   8.452277   9.323853   9.067039
    30  H    8.386638   7.514543   9.203731   9.932513   9.971323
    31  C    6.683159   5.258142   5.865692   7.177714   7.137363
    32  C    7.041213   5.435755   5.702855   7.257246   6.975835
    33  C    7.056830   5.551389   5.123312   6.733283   6.607094
    34  H    5.663799   4.335746   4.977083   6.174685   6.242444
    35  H    7.389272   6.082616   6.448384   7.699662   7.857829
    36  H    6.568042   4.868390   5.372252   6.957693   6.432210
    37  H    8.102675   6.472419   6.757630   8.340366   8.008778
    38  H    7.746337   6.353661   5.789526   7.298419   7.386848
    39  H    6.112581   4.698367   4.076597   5.656368   5.627517
    40  H    7.582599   6.026666   5.398592   7.102127   6.800243
                   21         22         23         24         25
    21  C    0.000000
    22  C    1.529047   0.000000
    23  C    2.546287   1.528985   0.000000
    24  H    1.098610   2.155655   2.768905   0.000000
    25  H    1.098815   2.155329   2.768927   1.761000   0.000000
    26  H    2.152560   1.097550   2.161692   2.501265   3.058263
    27  H    2.152561   1.097550   2.161693   3.058420   2.500372
    28  H    2.803300   2.171275   1.094807   3.122903   2.576229
    29  H    2.803299   2.171275   1.094806   2.576300   3.123410
    30  H    3.500760   2.182504   1.094468   3.775302   3.775137
    31  C    1.527655   2.554280   3.916783   2.155750   2.155508
    32  C    2.554280   3.923127   5.100546   2.781358   2.781504
    33  C    3.916783   5.100546   6.427737   4.204569   4.204484
    34  H    2.155507   2.781503   4.204483   2.504587   3.061615
    35  H    2.155750   2.781358   4.204569   3.061809   2.504587
    36  H    2.776381   4.203069   5.211519   2.551148   3.099972
    37  H    2.776381   4.203069   5.211518   3.099347   2.551217
    38  H    4.228002   5.248681   6.635279   4.755801   4.415730
    39  H    4.228003   5.248682   6.635279   4.416157   4.755777
    40  H    4.730016   6.032715   7.274720   4.888348   4.888414
                   26         27         28         29         30
    26  H    0.000000
    27  H    1.760000   0.000000
    28  H    3.074390   2.517276   0.000000
    29  H    2.517275   3.074390   1.770000   0.000000
    30  H    2.508383   2.508383   1.771810   1.771809   0.000000
    31  C    2.776381   2.776382   4.228003   4.228002   4.730015
    32  C    4.203070   4.203070   5.248682   5.248681   6.032715
    33  C    5.211519   5.211519   6.635279   6.635279   7.274720
    34  H    2.551217   3.099972   4.755777   4.415730   4.888413
    35  H    3.099347   2.551147   4.416157   4.755800   4.888347
    36  H    4.387743   4.727567   5.422720   5.127445   6.192290
    37  H    4.727566   4.387743   5.127445   5.422720   6.192290
    38  H    5.422720   5.127445   6.782504   7.009654   7.408766
    39  H    5.127446   5.422721   7.009655   6.782504   7.408767
    40  H    6.192291   6.192291   7.408767   7.408767   8.180649
                   31         32         33         34         35
    31  C    0.000000
    32  C    1.529047   0.000000
    33  C    2.546287   1.528985   0.000000
    34  H    1.098815   2.155330   2.768928   0.000000
    35  H    1.098611   2.155656   2.768906   1.761000   0.000000
    36  H    2.152560   1.097549   2.161692   2.500372   3.058419
    37  H    2.152560   1.097550   2.161692   3.058263   2.501265
    38  H    2.803300   2.171276   1.094807   3.123411   2.576301
    39  H    2.803300   2.171275   1.094807   2.576230   3.122904
    40  H    3.500761   2.182504   1.094468   3.775138   3.775303
                   36         37         38         39         40
    36  H    0.000000
    37  H    1.759999   0.000000
    38  H    3.074390   2.517276   0.000000
    39  H    2.517275   3.074391   1.770001   0.000000
    40  H    2.508384   2.508384   1.771810   1.771810   0.000000
 Stoichiometry    C12H28
 Framework group  C1[X(C12H28)]
 Deg. of freedom   114
 Full point group                 C1      NOp   1
 Largest Abelian subgroup         C1      NOp   1
 Largest concise Abelian subgroup C1      NOp   1
                         Standard orientation:                         
 ---------------------------------------------------------------------
 Center     Atomic      Atomic             Coordinates (Angstroms)
 Number     Number       Type             X           Y           Z
 ---------------------------------------------------------------------
      1          6           0       -2.118081   -1.373178   -0.127176
      2          6           0       -1.502773   -2.067470    1.088283
      3          6           0       -0.752550   -3.348029    0.720684
      4          1           0       -2.802613   -2.068974   -0.631387
      5          1           0       -1.322946   -1.139165   -0.848560
      6          1           0       -2.298643   -2.298861    1.807772
      7          1           0       -0.819771   -1.369876    1.589768
      8          1           0        0.060939   -3.130563    0.021010
      9          1           0       -1.426335   -4.064827    0.240252
     10          1           0       -0.320730   -3.828073    1.604398
     11          6           0       -2.871411   -0.091478    0.224203
     12          6           0       -3.486718    0.602814   -0.991256
     13          6           0       -4.236941    1.883373   -0.623657
     14          1           0       -3.666545   -0.325491    0.945587
     15          1           0       -2.186878    0.604318    0.728414
     16          1           0       -4.169720   -0.094780   -1.492741
     17          1           0       -2.690848    0.834206   -1.710745
     18          1           0       -3.563156    2.600171   -0.143225
     19          1           0       -5.050430    1.665908    0.076017
     20          1           0       -4.668761    2.363417   -1.507371
     21          6           0        2.885987    0.271550   -0.515468
     22          6           0        2.851690   -1.196085   -0.087852
     23          6           0        3.638863   -2.105432   -1.031908
     24          1           0        2.482174    0.359818   -1.533353
     25          1           0        3.930950    0.607912   -0.563497
     26          1           0        1.807036   -1.529185   -0.039304
     27          1           0        3.255453   -1.280844    0.929206
     28          1           0        4.689606   -1.800742   -1.073190
     29          1           0        3.232958   -2.050494   -2.047202
     30          1           0        3.601029   -3.150024   -0.707476
     31          6           0        2.103504    1.193106    0.418441
     32          6           0        2.137801    2.660741   -0.009175
     33          6           0        1.350628    3.570088    0.934881
     34          1           0        1.058541    0.856743    0.466470
     35          1           0        2.507317    1.104837    1.436326
     36          1           0        1.734038    2.745500   -1.026232
     37          1           0        3.182456    2.993840   -0.057723
     38          1           0        1.756533    3.515149    1.950176
     39          1           0        0.299885    3.265397    0.976163
     40          1           0        1.388462    4.614680    0.610450
 ---------------------------------------------------------------------
 Rotational constants (GHZ):           0.6014346           0.3699328           0.2526088
 Leave Link  202 at Wed May  5 23:00:46 2021, MaxMem=   524288000 cpu:               0.1 elap:               0.1
 (Enter /opt/gaussian/g16_legacy/l301.exe)
 Standard basis: 6-31G(d) (6D, 7F)
 Ernie: Thresh=  0.10000D-02 Tol=  0.10000D-05 Strict=F.
 There are   236 symmetry adapted cartesian basis functions of A   symmetry.
 There are   236 symmetry adapted basis functions of A   symmetry.
   236 basis functions,   448 primitive gaussians,   236 cartesian basis functions
    50 alpha electrons       50 beta electrons
       nuclear repulsion energy       712.4662278037 Hartrees.
 IExCor=    0 DFT=F Ex=HF Corr=None ExCW=0 ScaHFX=  1.000000
 ScaDFX=  1.000000  1.000000  1.000000  1.000000 ScalE2=  1.000000  1.000000
 IRadAn=      5 IRanWt=     -1 IRanGd=            0 ICorTp=0 IEmpDi=  4
 NAtoms=   40 NActive=   40 NUniq=   40 SFac= 1.00D+00 NAtFMM=   60 NAOKFM=F Big=F
 Integral buffers will be    131072 words long.
 Raffenetti 1 integral format.
 Two-electron integral symmetry is turned on.
 Leave Link  301 at Wed May  5 23:00:46 2021, MaxMem=   524288000 cpu:               0.3 elap:               0.2
 (Enter /opt/gaussian/g16_legacy/l302.exe)
 NPDir=0 NMtPBC=     1 NCelOv=     1 NCel=       1 NClECP=     1 NCelD=      1
         NCelK=      1 NCelE2=     1 NClLst=     1 CellRange=     0.0.
 One-electron integrals computed using PRISM.
 One-electron integral symmetry used in STVInt
 NBasis=   236 RedAO= T EigKep=  3.20D-03  NBF=   236
 NBsUse=   236 1.00D-06 EigRej= -1.00D+00 NBFU=   236
 Leave Link  302 at Wed May  5 23:00:47 2021, MaxMem=   524288000 cpu:               0.8 elap:               0.8
 (Enter /opt/gaussian/g16_legacy/l303.exe)
 DipDrv:  MaxL=1.
 Leave Link  303 at Wed May  5 23:00:47 2021, MaxMem=   524288000 cpu:               0.1 elap:               0.1
 (Enter /opt/gaussian/g16_legacy/l401.exe)
 ExpMin= 1.61D-01 ExpMax= 3.05D+03 ExpMxC= 4.57D+02 IAcc=3 IRadAn=         5 AccDes= 0.00D+00
 Harris functional with IExCor=  205 and IRadAn=       5 diagonalized for initial guess.
 HarFok:  IExCor=  205 AccDes= 0.00D+00 IRadAn=         5 IDoV= 1 UseB2=F ITyADJ=14
 ICtDFT=  3500011 ScaDFX=  1.000000  1.000000  1.000000  1.000000
 FoFCou: FMM=F IPFlag=           0 FMFlag=      100000 FMFlg1=           0
         NFxFlg=           0 DoJE=T BraDBF=F KetDBF=T FulRan=T
         wScrn=  0.000000 ICntrl=       500 IOpCl=  0 I1Cent=   200000004 NGrid=           0
         NMat0=    1 NMatS0=      1 NMatT0=    0 NMatD0=    1 NMtDS0=    0 NMtDT0=    0
 Petite list used in FoFCou.
 Harris En= -472.099026256110    
 JPrj=0 DoOrth=F DoCkMO=F.
 Leave Link  401 at Wed May  5 23:00:57 2021, MaxMem=   524288000 cpu:              17.7 elap:               9.5
 (Enter /opt/gaussian/g16_legacy/l502.exe)
 Keep R1 ints in memory in canonical form, NReq=397720540.
 FoFCou: FMM=F IPFlag=           0 FMFlag=           0 FMFlg1=           0
         NFxFlg=           0 DoJE=F BraDBF=F KetDBF=F FulRan=T
         wScrn=  0.000000 ICntrl=       600 IOpCl=  0 I1Cent=           0 NGrid=           0
         NMat0=    1 NMatS0=  27966 NMatT0=    0 NMatD0=    1 NMtDS0=    0 NMtDT0=    0
 Symmetry not used in FoFCou.
 Two-electron integral symmetry not used.
 Closed shell SCF:
 Using DIIS extrapolation, IDIIS=  1040.
 NGot=   524288000 LenX=   133109463 LenY=   133053326
 Requested convergence on RMS density matrix=1.00D-08 within 128 cycles.
 Requested convergence on MAX density matrix=1.00D-06.
 Requested convergence on             energy=1.00D-06.
 No special actions if energy rises.

 Cycle   1  Pass 1  IDiag  1:
 E= -469.871673680645    
 DIIS: error= 5.28D-02 at cycle   1 NSaved=   1.
 NSaved= 1 IEnMin= 1 EnMin= -469.871673680645     IErMin= 1 ErrMin= 5.28D-02
 ErrMax= 5.28D-02  0.00D+00 EMaxC= 1.00D-01 BMatC= 1.07D+00 BMatP= 1.07D+00
 IDIUse=3 WtCom= 4.72D-01 WtEn= 5.28D-01
 Coeff-Com:  0.100D+01
 Coeff-En:   0.100D+01
 Coeff:      0.100D+01
 Gap=     0.597 Goal=   None    Shift=    0.000
 GapD=    0.597 DampG=2.000 DampE=0.500 DampFc=1.0000 IDamp=-1.
 RMSDP=4.72D-03 MaxDP=1.17D-01              OVMax= 1.35D-01

 Cycle   2  Pass 1  IDiag  1:
 E= -470.596184468443     Delta-E=       -0.724510787797 Rises=F Damp=F
 DIIS: error= 1.93D-02 at cycle   2 NSaved=   2.
 NSaved= 2 IEnMin= 2 EnMin= -470.596184468443     IErMin= 2 ErrMin= 1.93D-02
 ErrMax= 1.93D-02  0.00D+00 EMaxC= 1.00D-01 BMatC= 1.46D-01 BMatP= 1.07D+00
 IDIUse=3 WtCom= 8.07D-01 WtEn= 1.93D-01
 Coeff-Com:  0.219D+00 0.781D+00
 Coeff-En:   0.000D+00 0.100D+01
 Coeff:      0.177D+00 0.823D+00
 Gap=     0.652 Goal=   None    Shift=    0.000
 RMSDP=1.72D-03 MaxDP=3.32D-02 DE=-7.25D-01 OVMax= 4.77D-02

 Cycle   3  Pass 1  IDiag  1:
 E= -470.727791514395     Delta-E=       -0.131607045952 Rises=F Damp=F
 DIIS: error= 3.88D-03 at cycle   3 NSaved=   3.
 NSaved= 3 IEnMin= 3 EnMin= -470.727791514395     IErMin= 3 ErrMin= 3.88D-03
 ErrMax= 3.88D-03  0.00D+00 EMaxC= 1.00D-01 BMatC= 4.75D-03 BMatP= 1.46D-01
 IDIUse=3 WtCom= 9.61D-01 WtEn= 3.88D-02
 Coeff-Com: -0.262D-01 0.104D+00 0.922D+00
 Coeff-En:   0.000D+00 0.000D+00 0.100D+01
 Coeff:     -0.252D-01 0.998D-01 0.925D+00
 Gap=     0.626 Goal=   None    Shift=    0.000
 RMSDP=2.77D-04 MaxDP=6.56D-03 DE=-1.32D-01 OVMax= 9.46D-03

 Cycle   4  Pass 1  IDiag  1:
 E= -470.733203232043     Delta-E=       -0.005411717648 Rises=F Damp=F
 DIIS: error= 5.30D-04 at cycle   4 NSaved=   4.
 NSaved= 4 IEnMin= 4 EnMin= -470.733203232043     IErMin= 4 ErrMin= 5.30D-04
 ErrMax= 5.30D-04  0.00D+00 EMaxC= 1.00D-01 BMatC= 6.34D-05 BMatP= 4.75D-03
 IDIUse=3 WtCom= 9.95D-01 WtEn= 5.30D-03
 Coeff-Com:  0.115D-02-0.214D-01-0.866D-01 0.111D+01
 Coeff-En:   0.000D+00 0.000D+00 0.000D+00 0.100D+01
 Coeff:      0.115D-02-0.213D-01-0.861D-01 0.111D+01
 Gap=     0.626 Goal=   None    Shift=    0.000
 RMSDP=6.07D-05 MaxDP=1.03D-03 DE=-5.41D-03 OVMax= 1.81D-03

 Cycle   5  Pass 1  IDiag  1:
 E= -470.733309177037     Delta-E=       -0.000105944994 Rises=F Damp=F
 DIIS: error= 1.80D-04 at cycle   5 NSaved=   5.
 NSaved= 5 IEnMin= 5 EnMin= -470.733309177037     IErMin= 5 ErrMin= 1.80D-04
 ErrMax= 1.80D-04  0.00D+00 EMaxC= 1.00D-01 BMatC= 6.79D-06 BMatP= 6.34D-05
 IDIUse=3 WtCom= 9.98D-01 WtEn= 1.80D-03
 Coeff-Com:  0.221D-02-0.122D-01-0.845D-01 0.189D+00 0.905D+00
 Coeff-En:   0.000D+00 0.000D+00 0.000D+00 0.000D+00 0.100D+01
 Coeff:      0.220D-02-0.122D-01-0.843D-01 0.189D+00 0.905D+00
 Gap=     0.627 Goal=   None    Shift=    0.000
 RMSDP=1.61D-05 MaxDP=3.21D-04 DE=-1.06D-04 OVMax= 5.08D-04

 Cycle   6  Pass 1  IDiag  1:
 E= -470.733318661732     Delta-E=       -0.000009484695 Rises=F Damp=F
 DIIS: error= 2.69D-05 at cycle   6 NSaved=   6.
 NSaved= 6 IEnMin= 6 EnMin= -470.733318661732     IErMin= 6 ErrMin= 2.69D-05
 ErrMax= 2.69D-05  0.00D+00 EMaxC= 1.00D-01 BMatC= 1.48D-07 BMatP= 6.79D-06
 IDIUse=1 WtCom= 1.00D+00 WtEn= 0.00D+00
 Coeff-Com:  0.158D-03-0.381D-03-0.398D-02-0.306D-01 0.683D-01 0.966D+00
 Coeff:      0.158D-03-0.381D-03-0.398D-02-0.306D-01 0.683D-01 0.966D+00
 Gap=     0.627 Goal=   None    Shift=    0.000
 RMSDP=3.37D-06 MaxDP=6.13D-05 DE=-9.48D-06 OVMax= 1.01D-04

 Cycle   7  Pass 1  IDiag  1:
 E= -470.733318910216     Delta-E=       -0.000000248484 Rises=F Damp=F
 DIIS: error= 4.93D-06 at cycle   7 NSaved=   7.
 NSaved= 7 IEnMin= 7 EnMin= -470.733318910216     IErMin= 7 ErrMin= 4.93D-06
 ErrMax= 4.93D-06  0.00D+00 EMaxC= 1.00D-01 BMatC= 5.78D-09 BMatP= 1.48D-07
 IDIUse=1 WtCom= 1.00D+00 WtEn= 0.00D+00
 Coeff-Com: -0.540D-04 0.340D-03 0.242D-02-0.761D-02-0.243D-01 0.334D-01
 Coeff-Com:  0.996D+00
 Coeff:     -0.540D-04 0.340D-03 0.242D-02-0.761D-02-0.243D-01 0.334D-01
 Coeff:      0.996D+00
 Gap=     0.627 Goal=   None    Shift=    0.000
 RMSDP=7.31D-07 MaxDP=1.26D-05 DE=-2.48D-07 OVMax= 2.39D-05

 Cycle   8  Pass 1  IDiag  1:
 E= -470.733318920107     Delta-E=       -0.000000009892 Rises=F Damp=F
 DIIS: error= 2.11D-06 at cycle   8 NSaved=   8.
 NSaved= 8 IEnMin= 8 EnMin= -470.733318920107     IErMin= 8 ErrMin= 2.11D-06
 ErrMax= 2.11D-06  0.00D+00 EMaxC= 1.00D-01 BMatC= 6.07D-10 BMatP= 5.78D-09
 IDIUse=1 WtCom= 1.00D+00 WtEn= 0.00D+00
 Coeff-Com: -0.165D-04 0.659D-04 0.573D-03 0.120D-02-0.736D-02-0.652D-01
 Coeff-Com:  0.132D+00 0.938D+00
 Coeff:     -0.165D-04 0.659D-04 0.573D-03 0.120D-02-0.736D-02-0.652D-01
 Coeff:      0.132D+00 0.938D+00
 Gap=     0.627 Goal=   None    Shift=    0.000
 RMSDP=2.03D-07 MaxDP=4.31D-06 DE=-9.89D-09 OVMax= 7.30D-06

 Cycle   9  Pass 1  IDiag  1:
 E= -470.733318921127     Delta-E=       -0.000000001020 Rises=F Damp=F
 DIIS: error= 4.12D-07 at cycle   9 NSaved=   9.
 NSaved= 9 IEnMin= 9 EnMin= -470.733318921127     IErMin= 9 ErrMin= 4.12D-07
 ErrMax= 4.12D-07  0.00D+00 EMaxC= 1.00D-01 BMatC= 3.65D-11 BMatP= 6.07D-10
 IDIUse=1 WtCom= 1.00D+00 WtEn= 0.00D+00
 Coeff-Com:  0.500D-05-0.299D-04-0.219D-03 0.473D-03 0.248D-02 0.234D-02
 Coeff-Com: -0.835D-01-0.686D-01 0.115D+01
 Coeff:      0.500D-05-0.299D-04-0.219D-03 0.473D-03 0.248D-02 0.234D-02
 Coeff:     -0.835D-01-0.686D-01 0.115D+01
 Gap=     0.627 Goal=   None    Shift=    0.000
 RMSDP=7.02D-08 MaxDP=1.07D-06 DE=-1.02D-09 OVMax= 2.11D-06

 Cycle  10  Pass 1  IDiag  1:
 E= -470.733318921207     Delta-E=       -0.000000000080 Rises=F Damp=F
 DIIS: error= 9.39D-08 at cycle  10 NSaved=  10.
 NSaved=10 IEnMin=10 EnMin= -470.733318921207     IErMin=10 ErrMin= 9.39D-08
 ErrMax= 9.39D-08  0.00D+00 EMaxC= 1.00D-01 BMatC= 1.51D-12 BMatP= 3.65D-11
 IDIUse=1 WtCom= 1.00D+00 WtEn= 0.00D+00
 Coeff-Com:  0.452D-06-0.117D-05-0.145D-04-0.119D-03 0.228D-03 0.381D-02
 Coeff-Com: -0.502D-03-0.523D-01-0.945D-01 0.114D+01
 Coeff:      0.452D-06-0.117D-05-0.145D-04-0.119D-03 0.228D-03 0.381D-02
 Coeff:     -0.502D-03-0.523D-01-0.945D-01 0.114D+01
 Gap=     0.627 Goal=   None    Shift=    0.000
 RMSDP=1.43D-08 MaxDP=2.47D-07 DE=-8.05D-11 OVMax= 5.02D-07

 Cycle  11  Pass 1  IDiag  1:
 E= -470.733318921202     Delta-E=        0.000000000005 Rises=F Damp=F
 DIIS: error= 8.25D-09 at cycle  11 NSaved=  11.
 NSaved=11 IEnMin=10 EnMin= -470.733318921207     IErMin=11 ErrMin= 8.25D-09
 ErrMax= 8.25D-09  0.00D+00 EMaxC= 1.00D-01 BMatC= 4.38D-14 BMatP= 1.51D-12
 IDIUse=1 WtCom= 1.00D+00 WtEn= 0.00D+00
 Coeff-Com: -0.174D-06 0.101D-05 0.727D-05-0.311D-05-0.926D-04-0.378D-03
 Coeff-Com:  0.240D-02 0.608D-02-0.213D-01-0.112D+00 0.112D+01
 Coeff:     -0.174D-06 0.101D-05 0.727D-05-0.311D-05-0.926D-04-0.378D-03
 Coeff:      0.240D-02 0.608D-02-0.213D-01-0.112D+00 0.112D+01
 Gap=     0.627 Goal=   None    Shift=    0.000
 RMSDP=1.89D-09 MaxDP=3.03D-08 DE= 5.00D-12 OVMax= 5.99D-08

 SCF Done:  E(RHF) =  -470.733318921     A.U. after   11 cycles
            NFock= 11  Conv=0.19D-08     -V/T= 2.0011
 KE= 4.702249755408D+02 PE=-2.518026946398D+03 EE= 8.646024241327D+02
 Leave Link  502 at Wed May  5 23:01:15 2021, MaxMem=   524288000 cpu:              27.0 elap:              18.2
 (Enter /opt/gaussian/g16_legacy/l801.exe)
 ExpMin= 1.61D-01 ExpMax= 3.05D+03 ExpMxC= 4.57D+02 IAcc=3 IRadAn=         5 AccDes= 0.00D+00
 HarFok:  IExCor=  205 AccDes= 0.00D+00 IRadAn=         5 IDoV=-2 UseB2=F ITyADJ=14
 ICtDFT= 12500011 ScaDFX=  1.000000  1.000000  1.000000  1.000000
 Largest valence mixing into a core orbital is  1.98D-04
 Largest core mixing into a valence orbital is  3.29D-05
 Range of M.O.s used for correlation:    13   236
 NBasis=   236 NAE=    50 NBE=    50 NFC=    12 NFV=     0
 NROrb=    224 NOA=    38 NOB=    38 NVA=   186 NVB=   186
 Leave Link  801 at Wed May  5 23:01:17 2021, MaxMem=   524288000 cpu:               2.5 elap:               1.6
 (Enter /opt/gaussian/g16_legacy/l906.exe)
 FulOut=F Deriv=F AODrv=F NAtomX=    40
   MMem=         154  MDisk=          38 MDiskD=          38
  W3Min=     1668048 MinDsk=     1838182 NBas6D=         236
 NBas2D=       28290    NTT=       27966    LW2=     2000000
    MDV=   523921020 MDiskM=       30715 NBas2p=       21558
 Fully direct method using O(OVN) memory.
 IMap=   1   2   3   4   5   6   7   8   9  10  11  12  13  14  15  16  17  18  19  20
 IMap=  21  22  23  24  25  26  27  28  29  30  31  32  33  34  35  36  37  38
 JobTyp=1 Pass  1:  I=   1 to  38 NPSUse=  2 ParTrn=T ParDer=T DoDerP=F.
 Spin components of T(2) and E(2):
     alpha-alpha T2 =       0.6290104980D-01 E2=     -0.1844489422D+00
     alpha-beta  T2 =       0.4044951035D+00 E2=     -0.1214877790D+01
     beta-beta   T2 =       0.6290104980D-01 E2=     -0.1844489422D+00
 The integrals were generated   1 times.
 ANorm=    0.1237051819D+01
 E2 =    -0.1583775674D+01 EUMP2 =    -0.47231709459536D+03
 Leave Link  906 at Wed May  5 23:02:05 2021, MaxMem=   524288000 cpu:              93.4 elap:              48.1
 (Enter /opt/gaussian/g16_legacy/l601.exe)
 Copying SCF densities to generalized density rwf, IOpCl= 0 IROHF=0.

 **********************************************************************

            Population analysis using the SCF density.

 **********************************************************************

 Orbital symmetries:
       Occupied  (A) (A) (A) (A) (A) (A) (A) (A) (A) (A) (A) (A)
                 (A) (A) (A) (A) (A) (A) (A) (A) (A) (A) (A) (A)
                 (A) (A) (A) (A) (A) (A) (A) (A) (A) (A) (A) (A)
                 (A) (A) (A) (A) (A) (A) (A) (A) (A) (A) (A) (A)
                 (A) (A)
       Virtual   (A) (A) (A) (A) (A) (A) (A) (A) (A) (A) (A) (A)
                 (A) (A) (A) (A) (A) (A) (A) (A) (A) (A) (A) (A)
                 (A) (A) (A) (A) (A) (A) (A) (A) (A) (A) (A) (A)
                 (A) (A) (A) (A) (A) (A) (A) (A) (A) (A) (A) (A)
                 (A) (A) (A) (A) (A) (A) (A) (A) (A) (A) (A) (A)
                 (A) (A) (A) (A) (A) (A) (A) (A) (A) (A) (A) (A)
                 (A) (A) (A) (A) (A) (A) (A) (A) (A) (A) (A) (A)
                 (A) (A) (A) (A) (A) (A) (A) (A) (A) (A) (A) (A)
                 (A) (A) (A) (A) (A) (A) (A) (A) (A) (A) (A) (A)
                 (A) (A) (A) (A) (A) (A) (A) (A) (A) (A) (A) (A)
                 (A) (A) (A) (A) (A) (A) (A) (A) (A) (A) (A) (A)
                 (A) (A) (A) (A) (A) (A) (A) (A) (A) (A) (A) (A)
                 (A) (A) (A) (A) (A) (A) (A) (A) (A) (A) (A) (A)
                 (A) (A) (A) (A) (A) (A) (A) (A) (A) (A) (A) (A)
                 (A) (A) (A) (A) (A) (A) (A) (A) (A) (A) (A) (A)
                 (A) (A) (A) (A) (A) (A)
 The electronic state is 1-A.
 Alpha  occ. eigenvalues --  -11.21659 -11.21646 -11.21625 -11.21616 -11.21466
 Alpha  occ. eigenvalues --  -11.21460 -11.21402 -11.21401 -11.21130 -11.21103
 Alpha  occ. eigenvalues --  -11.21098 -11.21070  -1.08505  -1.08456  -1.03601
 Alpha  occ. eigenvalues --   -1.03541  -0.96041  -0.96000  -0.87050  -0.87021
 Alpha  occ. eigenvalues --   -0.79671  -0.79595  -0.78302  -0.78288  -0.65323
 Alpha  occ. eigenvalues --   -0.64922  -0.61178  -0.60788  -0.59392  -0.59376
 Alpha  occ. eigenvalues --   -0.57670  -0.57595  -0.55427  -0.55198  -0.52716
 Alpha  occ. eigenvalues --   -0.52700  -0.52450  -0.52436  -0.50059  -0.49885
 Alpha  occ. eigenvalues --   -0.48039  -0.47872  -0.46785  -0.46541  -0.46028
 Alpha  occ. eigenvalues --   -0.45809  -0.45728  -0.45540  -0.43832  -0.43820
 Alpha virt. eigenvalues --    0.18861   0.22162   0.23807   0.24665   0.25721
 Alpha virt. eigenvalues --    0.26643   0.26908   0.27420   0.28417   0.29897
 Alpha virt. eigenvalues --    0.31013   0.31529   0.31740   0.31856   0.32021
 Alpha virt. eigenvalues --    0.32851   0.33308   0.33744   0.34013   0.34132
 Alpha virt. eigenvalues --    0.34500   0.34990   0.35719   0.36173   0.36600
 Alpha virt. eigenvalues --    0.36948   0.38075   0.39280   0.39773   0.40808
 Alpha virt. eigenvalues --    0.41279   0.43596   0.45338   0.45463   0.45654
 Alpha virt. eigenvalues --    0.45726   0.47763   0.48773   0.69096   0.69321
 Alpha virt. eigenvalues --    0.69448   0.69607   0.71348   0.71696   0.74996
 Alpha virt. eigenvalues --    0.75733   0.76327   0.77215   0.78169   0.79011
 Alpha virt. eigenvalues --    0.80533   0.82145   0.83708   0.84208   0.86891
 Alpha virt. eigenvalues --    0.86976   0.87875   0.88220   0.95816   0.95913
 Alpha virt. eigenvalues --    0.96231   0.96425   0.98355   0.98669   1.01518
 Alpha virt. eigenvalues --    1.01780   1.05340   1.05815   1.07419   1.07706
 Alpha virt. eigenvalues --    1.09826   1.11026   1.11436   1.13111   1.15279
 Alpha virt. eigenvalues --    1.16047   1.16548   1.16856   1.17388   1.17951
 Alpha virt. eigenvalues --    1.18562   1.18900   1.19045   1.19502   1.20045
 Alpha virt. eigenvalues --    1.20517   1.20722   1.21327   1.21710   1.21731
 Alpha virt. eigenvalues --    1.21920   1.22581   1.23023   1.23260   1.24147
 Alpha virt. eigenvalues --    1.24946   1.26608   1.26828   1.27444   1.28774
 Alpha virt. eigenvalues --    1.32383   1.37843   1.40309   1.41943   1.55622
 Alpha virt. eigenvalues --    1.56416   1.65926   1.66243   1.67261   1.67283
 Alpha virt. eigenvalues --    1.70860   1.71359   1.72697   1.72775   1.79261
 Alpha virt. eigenvalues --    1.80044   1.81082   1.81321   1.92698   1.92896
 Alpha virt. eigenvalues --    2.05265   2.05467   2.13067   2.13195   2.14673
 Alpha virt. eigenvalues --    2.14967   2.17781   2.18161   2.22348   2.22461
 Alpha virt. eigenvalues --    2.25482   2.25693   2.25855   2.25961   2.27591
 Alpha virt. eigenvalues --    2.27786   2.32639   2.32868   2.33896   2.34362
 Alpha virt. eigenvalues --    2.35873   2.36078   2.39587   2.39630   2.43045
 Alpha virt. eigenvalues --    2.43511   2.56668   2.56732   2.56782   2.56846
 Alpha virt. eigenvalues --    2.59539   2.60281   2.66758   2.66779   2.67581
 Alpha virt. eigenvalues --    2.67664   2.67839   2.68592   2.76632   2.77204
 Alpha virt. eigenvalues --    2.77742   2.77944   2.79926   2.79979   2.91330
 Alpha virt. eigenvalues --    2.91461   2.94877   2.95038   2.98539   2.98576
 Alpha virt. eigenvalues --    3.13755   3.13837   3.18528   3.18663   4.54952
 Alpha virt. eigenvalues --    4.56896   4.62229   4.63360   4.71789   4.72473
 Alpha virt. eigenvalues --    4.79689   4.80213   4.87752   4.89001   5.00016
 Alpha virt. eigenvalues --    5.00660
          Condensed to atoms (all electrons):
               1          2          3          4          5          6
     1  C    5.085392   0.351722  -0.057196   0.396099   0.395984  -0.043545
     2  C    0.351722   5.064493   0.340321  -0.041661  -0.042088   0.399033
     3  C   -0.057196   0.340321   5.103011  -0.002897  -0.002779  -0.039719
     4  H    0.396099  -0.041661  -0.002897   0.566002  -0.031502  -0.002962
     5  H    0.395984  -0.042088  -0.002779  -0.031502   0.567942   0.004574
     6  H   -0.043545   0.399033  -0.039719  -0.002962   0.004574   0.563494
     7  H   -0.043671   0.398978  -0.039849   0.004557  -0.003120  -0.031492
     8  H   -0.003823  -0.039373   0.390812   0.000190   0.002351   0.004211
     9  H   -0.003816  -0.038815   0.390628   0.002640   0.000155  -0.002881
    10  H    0.004395  -0.035782   0.394240  -0.000059  -0.000056  -0.002502
    11  C    0.355216  -0.051744   0.004065  -0.041553  -0.041832  -0.003223
    12  C   -0.051915   0.003979  -0.000085  -0.003260  -0.003246  -0.000064
    13  C    0.004075  -0.000085   0.000001  -0.000052  -0.000052  -0.000000
    14  H   -0.041630  -0.003279  -0.000052  -0.002782   0.004477   0.002405
    15  H   -0.041804  -0.003221  -0.000051   0.004452  -0.002857   0.000246
    16  H   -0.003191  -0.000064  -0.000000   0.002397   0.000234   0.000017
    17  H   -0.003206  -0.000065  -0.000000   0.000239   0.002413  -0.000003
    18  H   -0.000070  -0.000001  -0.000000  -0.000001   0.000013   0.000000
    19  H   -0.000070  -0.000001  -0.000000   0.000013  -0.000001  -0.000002
    20  H   -0.000087   0.000001  -0.000000   0.000001   0.000001   0.000000
    21  C   -0.000000   0.000005   0.000011  -0.000000   0.000001   0.000000
    22  C   -0.000032  -0.000004  -0.000475   0.000000   0.000008  -0.000000
    23  C    0.000000   0.000001  -0.000007  -0.000000  -0.000003  -0.000000
    24  H    0.000001  -0.000002   0.000001  -0.000000   0.000017   0.000000
    25  H    0.000000  -0.000000  -0.000000   0.000000   0.000000   0.000000
    26  H   -0.000005   0.000022  -0.000501  -0.000002   0.000317   0.000003
    27  H    0.000001  -0.000007   0.000027  -0.000000  -0.000000   0.000000
    28  H   -0.000000  -0.000000   0.000000   0.000000   0.000000   0.000000
    29  H    0.000000  -0.000000   0.000001  -0.000000   0.000001   0.000000
    30  H    0.000000  -0.000000   0.000009   0.000000  -0.000000   0.000000
    31  C   -0.000005  -0.000054   0.000003   0.000000   0.000014   0.000000
    32  C   -0.000000   0.000001  -0.000000   0.000000  -0.000002  -0.000000
    33  C    0.000000  -0.000000   0.000000  -0.000000   0.000000  -0.000000
    34  H    0.000031  -0.000037  -0.000013   0.000002   0.000194   0.000001
    35  H    0.000000  -0.000002   0.000000  -0.000000  -0.000000   0.000000
    36  H    0.000000  -0.000000  -0.000000  -0.000000   0.000000   0.000000
    37  H    0.000000  -0.000000   0.000000   0.000000   0.000000   0.000000
    38  H   -0.000000  -0.000000  -0.000000   0.000000   0.000000   0.000000
    39  H   -0.000001  -0.000000   0.000000   0.000000  -0.000000   0.000000
    40  H   -0.000000   0.000000  -0.000000   0.000000  -0.000000  -0.000000
               7          8          9         10         11         12
     1  C   -0.043671  -0.003823  -0.003816   0.004395   0.355216  -0.051915
     2  C    0.398978  -0.039373  -0.038815  -0.035782  -0.051744   0.003979
     3  C   -0.039849   0.390812   0.390628   0.394240   0.004065  -0.000085
     4  H    0.004557   0.000190   0.002640  -0.000059  -0.041553  -0.003260
     5  H   -0.003120   0.002351   0.000155  -0.000056  -0.041832  -0.003246
     6  H   -0.031492   0.004211  -0.002881  -0.002502  -0.003223  -0.000064
     7  H    0.561415  -0.003106   0.004219  -0.002465  -0.003205  -0.000062
     8  H   -0.003106   0.545787  -0.029035  -0.027490  -0.000063  -0.000001
     9  H    0.004219  -0.029035   0.549094  -0.027434  -0.000069  -0.000001
    10  H   -0.002465  -0.027490  -0.027434   0.536543  -0.000087   0.000001
    11  C   -0.003205  -0.000063  -0.000069  -0.000087   5.086045   0.351964
    12  C   -0.000062  -0.000001  -0.000001   0.000001   0.351964   5.060842
    13  C   -0.000000  -0.000000  -0.000000  -0.000000  -0.057346   0.340630
    14  H    0.000238  -0.000002   0.000013   0.000001   0.396081  -0.041833
    15  H    0.002268   0.000015  -0.000001   0.000001   0.395886  -0.041874
    16  H   -0.000003   0.000000  -0.000002   0.000000  -0.043602   0.399134
    17  H    0.000017  -0.000002   0.000000   0.000000  -0.043700   0.399052
    18  H   -0.000002   0.000000  -0.000000  -0.000000  -0.003802  -0.038936
    19  H    0.000000  -0.000000   0.000000  -0.000000  -0.003798  -0.038895
    20  H    0.000000  -0.000000  -0.000000   0.000000   0.004398  -0.035825
    21  C   -0.000033   0.000016  -0.000000   0.000000   0.000001  -0.000000
    22  C    0.000105  -0.000375   0.000007   0.000028   0.000001   0.000000
    23  C   -0.000002   0.000165  -0.000000  -0.000002   0.000000  -0.000000
    24  H    0.000001   0.000002  -0.000000  -0.000000  -0.000000   0.000000
    25  H    0.000000  -0.000000   0.000000   0.000000  -0.000000  -0.000000
    26  H    0.000302   0.000702   0.000022   0.000006  -0.000006   0.000000
    27  H    0.000011   0.000012  -0.000000  -0.000001  -0.000000  -0.000000
    28  H    0.000000  -0.000002   0.000000   0.000000  -0.000000   0.000000
    29  H    0.000000   0.000018  -0.000000  -0.000000  -0.000000  -0.000000
    30  H   -0.000000   0.000101  -0.000001   0.000001  -0.000000   0.000000
    31  C    0.000061  -0.000002  -0.000000  -0.000000  -0.000034   0.000001
    32  C   -0.000002  -0.000000   0.000000  -0.000000   0.000003  -0.000000
    33  C   -0.000000   0.000000   0.000000  -0.000000  -0.000008   0.000001
    34  H    0.000606  -0.000007   0.000000  -0.000000  -0.000000  -0.000007
    35  H    0.000012   0.000000   0.000000   0.000000   0.000000   0.000000
    36  H    0.000000  -0.000000   0.000000   0.000000   0.000000   0.000000
    37  H    0.000000   0.000000  -0.000000  -0.000000  -0.000000   0.000000
    38  H    0.000000  -0.000000  -0.000000   0.000000   0.000000  -0.000000
    39  H    0.000001   0.000000  -0.000000  -0.000000  -0.000000  -0.000002
    40  H   -0.000000  -0.000000  -0.000000   0.000000   0.000000  -0.000000
              13         14         15         16         17         18
     1  C    0.004075  -0.041630  -0.041804  -0.003191  -0.003206  -0.000070
     2  C   -0.000085  -0.003279  -0.003221  -0.000064  -0.000065  -0.000001
     3  C    0.000001  -0.000052  -0.000051  -0.000000  -0.000000  -0.000000
     4  H   -0.000052  -0.002782   0.004452   0.002397   0.000239  -0.000001
     5  H   -0.000052   0.004477  -0.002857   0.000234   0.002413   0.000013
     6  H   -0.000000   0.002405   0.000246   0.000017  -0.000003   0.000000
     7  H   -0.000000   0.000238   0.002268  -0.000003   0.000017  -0.000002
     8  H   -0.000000  -0.000002   0.000015   0.000000  -0.000002   0.000000
     9  H   -0.000000   0.000013  -0.000001  -0.000002   0.000000  -0.000000
    10  H   -0.000000   0.000001   0.000001   0.000000   0.000000  -0.000000
    11  C   -0.057346   0.396081   0.395886  -0.043602  -0.043700  -0.003802
    12  C    0.340630  -0.041833  -0.041874   0.399134   0.399052  -0.038936
    13  C    5.097375  -0.002856  -0.002866  -0.039850  -0.039917   0.391220
    14  H   -0.002856   0.566174  -0.031347  -0.002978   0.004568   0.000159
    15  H   -0.002866  -0.031347   0.566174   0.004560  -0.002965   0.002631
    16  H   -0.039850  -0.002978   0.004560   0.563962  -0.031629   0.004220
    17  H   -0.039917   0.004568  -0.002965  -0.031629   0.564774  -0.002890
    18  H    0.391220   0.000159   0.002631   0.004220  -0.002890   0.548892
    19  H    0.391305   0.002623   0.000159  -0.002889   0.004222  -0.029124
    20  H    0.394129  -0.000059  -0.000058  -0.002505  -0.002510  -0.027478
    21  C    0.000000  -0.000000  -0.000002   0.000000  -0.000000   0.000000
    22  C   -0.000000  -0.000000   0.000000  -0.000000  -0.000000  -0.000000
    23  C    0.000000   0.000000   0.000000  -0.000000   0.000000  -0.000000
    24  H   -0.000000   0.000000  -0.000000  -0.000000   0.000000   0.000000
    25  H   -0.000000   0.000000   0.000000  -0.000000   0.000000  -0.000000
    26  H   -0.000000   0.000000  -0.000002  -0.000000  -0.000000   0.000000
    27  H   -0.000000   0.000000  -0.000000   0.000000   0.000000   0.000000
    28  H   -0.000000  -0.000000   0.000000   0.000000  -0.000000   0.000000
    29  H   -0.000000   0.000000  -0.000000   0.000000   0.000000   0.000000
    30  H   -0.000000  -0.000000   0.000000   0.000000   0.000000   0.000000
    31  C    0.000000   0.000000   0.000002  -0.000000   0.000001  -0.000000
    32  C    0.000000  -0.000000  -0.000007   0.000000  -0.000000  -0.000000
    33  C   -0.000001   0.000000   0.000002  -0.000000   0.000000  -0.000000
    34  H   -0.000000  -0.000000   0.000504   0.000000   0.000005   0.000000
    35  H   -0.000000  -0.000000  -0.000002   0.000000  -0.000000   0.000000
    36  H    0.000000   0.000000  -0.000001  -0.000000   0.000001  -0.000000
    37  H   -0.000000   0.000000   0.000000  -0.000000   0.000000   0.000000
    38  H    0.000000  -0.000000  -0.000001   0.000000   0.000000  -0.000000
    39  H    0.000001  -0.000000   0.000216   0.000000  -0.000000   0.000047
    40  H    0.000000  -0.000000  -0.000000   0.000000  -0.000000  -0.000000
              19         20         21         22         23         24
     1  C   -0.000070  -0.000087  -0.000000  -0.000032   0.000000   0.000001
     2  C   -0.000001   0.000001   0.000005  -0.000004   0.000001  -0.000002
     3  C   -0.000000  -0.000000   0.000011  -0.000475  -0.000007   0.000001
     4  H    0.000013   0.000001  -0.000000   0.000000  -0.000000  -0.000000
     5  H   -0.000001   0.000001   0.000001   0.000008  -0.000003   0.000017
     6  H   -0.000002   0.000000   0.000000  -0.000000  -0.000000   0.000000
     7  H    0.000000   0.000000  -0.000033   0.000105  -0.000002   0.000001
     8  H   -0.000000  -0.000000   0.000016  -0.000375   0.000165   0.000002
     9  H    0.000000  -0.000000  -0.000000   0.000007  -0.000000  -0.000000
    10  H   -0.000000   0.000000   0.000000   0.000028  -0.000002  -0.000000
    11  C   -0.003798   0.004398   0.000001   0.000001   0.000000  -0.000000
    12  C   -0.038895  -0.035825  -0.000000   0.000000  -0.000000   0.000000
    13  C    0.391305   0.394129   0.000000  -0.000000   0.000000  -0.000000
    14  H    0.002623  -0.000059  -0.000000  -0.000000   0.000000   0.000000
    15  H    0.000159  -0.000058  -0.000002   0.000000   0.000000  -0.000000
    16  H   -0.002889  -0.002505   0.000000  -0.000000  -0.000000  -0.000000
    17  H    0.004222  -0.002510  -0.000000  -0.000000   0.000000   0.000000
    18  H   -0.029124  -0.027478   0.000000  -0.000000  -0.000000   0.000000
    19  H    0.548529  -0.027469  -0.000000   0.000000  -0.000000   0.000000
    20  H   -0.027469   0.537010  -0.000000  -0.000000   0.000000  -0.000000
    21  C   -0.000000  -0.000000   5.084944   0.350761  -0.057267   0.396019
    22  C    0.000000  -0.000000   0.350761   5.070544   0.340609  -0.041817
    23  C   -0.000000   0.000000  -0.057267   0.340609   5.097959  -0.002861
    24  H    0.000000  -0.000000   0.396019  -0.041817  -0.002861   0.567183
    25  H   -0.000000  -0.000000   0.396165  -0.041704  -0.002874  -0.031419
    26  H   -0.000000   0.000000  -0.043674   0.398932  -0.040437  -0.002979
    27  H   -0.000000   0.000000  -0.043614   0.399255  -0.039821   0.004567
    28  H    0.000000  -0.000000  -0.003791  -0.038762   0.391235   0.000159
    29  H   -0.000000   0.000000  -0.003820  -0.038850   0.391209   0.002634
    30  H   -0.000000   0.000000   0.004400  -0.035748   0.394122  -0.000058
    31  C   -0.000000   0.000000   0.355061  -0.051856   0.004068  -0.041717
    32  C   -0.000000  -0.000000  -0.051888   0.003970  -0.000085  -0.003264
    33  C    0.000000   0.000000   0.004070  -0.000085   0.000001  -0.000052
    34  H    0.000000  -0.000000  -0.041546  -0.003217  -0.000048  -0.002801
    35  H    0.000000   0.000000  -0.041592  -0.003240  -0.000053   0.004464
    36  H    0.000000  -0.000000  -0.003191  -0.000065  -0.000000   0.002406
    37  H    0.000000   0.000000  -0.003186  -0.000064  -0.000000   0.000241
    38  H   -0.000000  -0.000000  -0.000070  -0.000001  -0.000000  -0.000001
    39  H   -0.000000  -0.000000  -0.000070  -0.000000  -0.000000   0.000013
    40  H    0.000000  -0.000000  -0.000087   0.000001  -0.000000   0.000001
              25         26         27         28         29         30
     1  C    0.000000  -0.000005   0.000001  -0.000000   0.000000   0.000000
     2  C   -0.000000   0.000022  -0.000007  -0.000000  -0.000000  -0.000000
     3  C   -0.000000  -0.000501   0.000027   0.000000   0.000001   0.000009
     4  H    0.000000  -0.000002  -0.000000   0.000000  -0.000000   0.000000
     5  H    0.000000   0.000317  -0.000000   0.000000   0.000001  -0.000000
     6  H    0.000000   0.000003   0.000000   0.000000   0.000000   0.000000
     7  H    0.000000   0.000302   0.000011   0.000000   0.000000  -0.000000
     8  H   -0.000000   0.000702   0.000012  -0.000002   0.000018   0.000101
     9  H    0.000000   0.000022  -0.000000   0.000000  -0.000000  -0.000001
    10  H    0.000000   0.000006  -0.000001   0.000000  -0.000000   0.000001
    11  C   -0.000000  -0.000006  -0.000000  -0.000000  -0.000000  -0.000000
    12  C   -0.000000   0.000000  -0.000000   0.000000  -0.000000   0.000000
    13  C   -0.000000  -0.000000  -0.000000  -0.000000  -0.000000  -0.000000
    14  H    0.000000   0.000000   0.000000  -0.000000   0.000000  -0.000000
    15  H    0.000000  -0.000002  -0.000000   0.000000  -0.000000   0.000000
    16  H   -0.000000  -0.000000   0.000000   0.000000   0.000000   0.000000
    17  H    0.000000  -0.000000   0.000000  -0.000000   0.000000   0.000000
    18  H   -0.000000   0.000000   0.000000   0.000000   0.000000   0.000000
    19  H   -0.000000  -0.000000  -0.000000   0.000000  -0.000000  -0.000000
    20  H   -0.000000   0.000000   0.000000  -0.000000   0.000000   0.000000
    21  C    0.396165  -0.043674  -0.043614  -0.003791  -0.003820   0.004400
    22  C   -0.041704   0.398932   0.399255  -0.038762  -0.038850  -0.035748
    23  C   -0.002874  -0.040437  -0.039821   0.391235   0.391209   0.394122
    24  H   -0.031419  -0.002979   0.004567   0.000159   0.002634  -0.000058
    25  H    0.566416   0.004490  -0.002970   0.002615   0.000162  -0.000060
    26  H    0.004490   0.556932  -0.031576   0.004272  -0.002967  -0.002716
    27  H   -0.002970  -0.031576   0.563651  -0.002884   0.004220  -0.002492
    28  H    0.002615   0.004272  -0.002884   0.548259  -0.029125  -0.027417
    29  H    0.000162  -0.002967   0.004220  -0.029125   0.549153  -0.027477
    30  H   -0.000060  -0.002716  -0.002492  -0.027417  -0.027477   0.536482
    31  C   -0.041684  -0.003080  -0.003206  -0.000070  -0.000070  -0.000087
    32  C   -0.003259  -0.000059  -0.000065  -0.000000  -0.000001   0.000001
    33  C   -0.000052  -0.000001  -0.000000  -0.000000  -0.000000  -0.000000
    34  H    0.004425   0.002134   0.000242  -0.000002   0.000013   0.000001
    35  H   -0.002791   0.000241   0.002407   0.000013  -0.000001   0.000001
    36  H    0.000241   0.000017  -0.000003   0.000000  -0.000002   0.000000
    37  H    0.002393  -0.000004   0.000017  -0.000002   0.000000   0.000000
    38  H    0.000013   0.000000  -0.000002   0.000000  -0.000000  -0.000000
    39  H   -0.000001  -0.000002   0.000000  -0.000000   0.000000  -0.000000
    40  H    0.000001   0.000000   0.000000  -0.000000  -0.000000   0.000000
              31         32         33         34         35         36
     1  C   -0.000005  -0.000000   0.000000   0.000031   0.000000   0.000000
     2  C   -0.000054   0.000001  -0.000000  -0.000037  -0.000002  -0.000000
     3  C    0.000003  -0.000000   0.000000  -0.000013   0.000000  -0.000000
     4  H    0.000000   0.000000  -0.000000   0.000002  -0.000000  -0.000000
     5  H    0.000014  -0.000002   0.000000   0.000194  -0.000000   0.000000
     6  H    0.000000  -0.000000  -0.000000   0.000001   0.000000   0.000000
     7  H    0.000061  -0.000002  -0.000000   0.000606   0.000012   0.000000
     8  H   -0.000002  -0.000000   0.000000  -0.000007   0.000000  -0.000000
     9  H   -0.000000   0.000000   0.000000   0.000000   0.000000   0.000000
    10  H   -0.000000  -0.000000  -0.000000  -0.000000   0.000000   0.000000
    11  C   -0.000034   0.000003  -0.000008  -0.000000   0.000000   0.000000
    12  C    0.000001  -0.000000   0.000001  -0.000007   0.000000   0.000000
    13  C    0.000000   0.000000  -0.000001  -0.000000  -0.000000   0.000000
    14  H    0.000000  -0.000000   0.000000  -0.000000  -0.000000   0.000000
    15  H    0.000002  -0.000007   0.000002   0.000504  -0.000002  -0.000001
    16  H   -0.000000   0.000000  -0.000000   0.000000   0.000000  -0.000000
    17  H    0.000001  -0.000000   0.000000   0.000005  -0.000000   0.000001
    18  H   -0.000000  -0.000000  -0.000000   0.000000   0.000000  -0.000000
    19  H   -0.000000  -0.000000   0.000000   0.000000   0.000000   0.000000
    20  H    0.000000  -0.000000   0.000000  -0.000000   0.000000  -0.000000
    21  C    0.355061  -0.051888   0.004070  -0.041546  -0.041592  -0.003191
    22  C   -0.051856   0.003970  -0.000085  -0.003217  -0.003240  -0.000065
    23  C    0.004068  -0.000085   0.000001  -0.000048  -0.000053  -0.000000
    24  H   -0.041717  -0.003264  -0.000052  -0.002801   0.004464   0.002406
    25  H   -0.041684  -0.003259  -0.000052   0.004425  -0.002791   0.000241
    26  H   -0.003080  -0.000059  -0.000001   0.002134   0.000241   0.000017
    27  H   -0.003206  -0.000065  -0.000000   0.000242   0.002407  -0.000003
    28  H   -0.000070  -0.000000  -0.000000  -0.000002   0.000013   0.000000
    29  H   -0.000070  -0.000001  -0.000000   0.000013  -0.000001  -0.000002
    30  H   -0.000087   0.000001  -0.000000   0.000001   0.000001   0.000000
    31  C    5.088091   0.351542  -0.057310   0.395979   0.396119  -0.043670
    32  C    0.351542   5.061077   0.340537  -0.041679  -0.041785   0.399115
    33  C   -0.057310   0.340537   5.097719  -0.002891  -0.002858  -0.039903
    34  H    0.395979  -0.041679  -0.002891   0.564277  -0.031514  -0.002977
    35  H    0.396119  -0.041785  -0.002858  -0.031514   0.566229   0.004563
    36  H   -0.043670   0.399115  -0.039903  -0.002977   0.004563   0.564274
    37  H   -0.043603   0.399190  -0.039835   0.004526  -0.002965  -0.031578
    38  H   -0.003796  -0.038890   0.391313   0.000164   0.002623   0.004218
    39  H   -0.003769  -0.039017   0.390979   0.002565   0.000163  -0.002887
    40  H    0.004394  -0.035799   0.394144  -0.000056  -0.000059  -0.002508
              37         38         39         40
     1  C    0.000000  -0.000000  -0.000001  -0.000000
     2  C   -0.000000  -0.000000  -0.000000   0.000000
     3  C    0.000000  -0.000000   0.000000  -0.000000
     4  H    0.000000   0.000000   0.000000   0.000000
     5  H    0.000000   0.000000  -0.000000  -0.000000
     6  H    0.000000   0.000000   0.000000  -0.000000
     7  H    0.000000   0.000000   0.000001  -0.000000
     8  H    0.000000  -0.000000   0.000000  -0.000000
     9  H   -0.000000  -0.000000  -0.000000  -0.000000
    10  H   -0.000000   0.000000  -0.000000   0.000000
    11  C   -0.000000   0.000000  -0.000000   0.000000
    12  C    0.000000  -0.000000  -0.000002  -0.000000
    13  C   -0.000000   0.000000   0.000001   0.000000
    14  H    0.000000  -0.000000  -0.000000  -0.000000
    15  H    0.000000  -0.000001   0.000216  -0.000000
    16  H   -0.000000   0.000000   0.000000   0.000000
    17  H    0.000000   0.000000  -0.000000  -0.000000
    18  H    0.000000  -0.000000   0.000047  -0.000000
    19  H    0.000000  -0.000000  -0.000000   0.000000
    20  H    0.000000  -0.000000  -0.000000  -0.000000
    21  C   -0.003186  -0.000070  -0.000070  -0.000087
    22  C   -0.000064  -0.000001  -0.000000   0.000001
    23  C   -0.000000  -0.000000  -0.000000  -0.000000
    24  H    0.000241  -0.000001   0.000013   0.000001
    25  H    0.002393   0.000013  -0.000001   0.000001
    26  H   -0.000004   0.000000  -0.000002   0.000000
    27  H    0.000017  -0.000002   0.000000   0.000000
    28  H   -0.000002   0.000000  -0.000000  -0.000000
    29  H    0.000000  -0.000000   0.000000  -0.000000
    30  H    0.000000  -0.000000  -0.000000   0.000000
    31  C   -0.043603  -0.003796  -0.003769   0.004394
    32  C    0.399190  -0.038890  -0.039017  -0.035799
    33  C   -0.039835   0.391313   0.390979   0.394144
    34  H    0.004526   0.000164   0.002565  -0.000056
    35  H   -0.002965   0.002623   0.000163  -0.000059
    36  H   -0.031578   0.004218  -0.002887  -0.002508
    37  H    0.563638  -0.002884   0.004221  -0.002502
    38  H   -0.002884   0.548411  -0.029153  -0.027447
    39  H    0.004221  -0.029153   0.549738  -0.027481
    40  H   -0.002502  -0.027447  -0.027481   0.536729
 Mulliken charges:
               1
     1  C   -0.298849
     2  C   -0.302272
     3  C   -0.479505
     4  H    0.150140
     5  H    0.148844
     6  H    0.152409
     7  H    0.154221
     8  H    0.158899
     9  H    0.155277
    10  H    0.160660
    11  C   -0.299589
    12  C   -0.299597
    13  C   -0.475708
    14  H    0.150080
    15  H    0.149945
    16  H    0.152190
    17  H    0.151592
    18  H    0.155122
    19  H    0.155398
    20  H    0.160451
    21  C   -0.297621
    22  C   -0.307923
    23  C   -0.475908
    24  H    0.149264
    25  H    0.149896
    26  H    0.159616
    27  H    0.152230
    28  H    0.155502
    29  H    0.154902
    30  H    0.160940
    31  C   -0.301324
    32  C   -0.299633
    33  C   -0.475768
    34  H    0.151127
    35  H    0.150027
    36  H    0.151950
    37  H    0.152398
    38  H    0.155503
    39  H    0.154442
    40  H    0.160671
 Sum of Mulliken charges =  -0.00000
 Mulliken charges with hydrogens summed into heavy atoms:
               1
     1  C    0.000136
     2  C    0.004359
     3  C   -0.004669
    11  C    0.000436
    12  C    0.004185
    13  C   -0.004737
    21  C    0.001539
    22  C    0.003924
    23  C   -0.004565
    31  C   -0.000170
    32  C    0.004715
    33  C   -0.005153
 Electronic spatial extent (au):  <R**2>=           4685.6661
 Charge=             -0.0000 electrons
 Dipole moment (field-independent basis, Debye):
    X=              0.0062    Y=             -0.0092    Z=              0.0107  Tot=              0.0154
 Quadrupole moment (field-independent basis, Debye-Ang):
   XX=            -83.8095   YY=            -85.9294   ZZ=            -84.8052
   XY=              1.5649   XZ=              0.7586   YZ=             -0.5608
 Traceless Quadrupole moment (field-independent basis, Debye-Ang):
   XX=              1.0385   YY=             -1.0814   ZZ=              0.0428
   XY=              1.5649   XZ=              0.7586   YZ=             -0.5608
 Octapole moment (field-independent basis, Debye-Ang**2):
  XXX=              0.0652  YYY=              0.0670  ZZZ=              0.0706  XYY=             -0.5043
  XXY=             -2.3874  XXZ=              4.2696  XZZ=             -0.1598  YZZ=             -0.0247
  YYZ=             -0.2638  XYZ=              0.1679
 Hexadecapole moment (field-independent basis, Debye-Ang**3):
 XXXX=          -3822.2357 YYYY=          -2356.7725 ZZZZ=           -429.6427 XXXY=             38.7637
 XXXZ=             12.7326 YYYX=             16.2806 YYYZ=            -12.6040 ZZZX=              6.6426
 ZZZY=             -4.9332 XXYY=          -1041.4009 XXZZ=           -715.1542 YYZZ=           -464.3672
 XXYZ=             -4.7845 YYXZ=              7.9657 ZZXY=              0.5478
 N-N= 7.124662278037D+02 E-N=-2.518026946299D+03  KE= 4.702249755408D+02
 Leave Link  601 at Wed May  5 23:02:06 2021, MaxMem=   524288000 cpu:               0.5 elap:               0.5
 (Enter /opt/gaussian/g16_legacy/l9999.exe)
 1\1\GINC-TRUENO91\SP\RMP2-FC\6-31G(d)\C12H28\JRAMOS\05-May-2021\0\\#p 
 6-31g* mp2\\Input file generated by CHIRIPA (05-May-2021 14:51:10)\\0,
 1\C,0,-0.666,-0.374,0.\C,0,-1.882,0.553,0.\C,0,-3.207,-0.21,0.\H,0,-0.
 713,-1.03,-0.88\H,0,-0.713,-1.029,0.881\H,0,-1.832,1.207,-0.88\H,0,-1.
 832,1.207,0.88\H,0,-3.283,-0.85,0.885\H,0,-3.283,-0.85,-0.885\H,0,-4.0
 63,0.472,0.\C,0,0.666,0.374,0.\C,0,1.882,-0.553,0.\C,0,3.207,0.21,0.\H
 ,0,0.713,1.029,-0.881\H,0,0.713,1.03,0.88\H,0,1.832,-1.207,-0.88\H,0,1
 .832,-1.207,0.88\H,0,3.283,0.85,0.885\H,0,3.283,0.85,-0.885\H,0,4.063,
 -0.472,0.\C,0,-1.954414,-0.483541,5.120994\C,0,-3.220863,-0.507692,4.2
 64543\C,0,-4.113399,-1.712739,4.562932\H,0,-1.389,-1.410624,4.954355\H
 ,0,-2.238108,-0.476969,6.182535\H,0,-2.934881,-0.512819,3.204919\H,0,-
 3.783232,0.419642,4.433095\H,0,-4.42727,-1.709349,5.611777\H,0,-3.5740
 99,-2.647107,4.376622\H,0,-5.013006,-1.710168,3.939586\C,0,-1.051931,0
 .715221,4.834247\C,0,0.214518,0.739372,5.690698\C,0,1.107054,1.944419,
 5.392309\H,0,-0.768238,0.708649,3.772706\H,0,-1.617346,1.642304,5.0008
 86\H,0,0.776886,-0.187961,5.522146\H,0,-0.071465,0.744499,6.750322\H,0
 ,0.567753,2.878788,5.578619\H,0,1.420925,1.941029,4.343464\H,0,2.00666
 1,1.941849,6.015655\\Version=EM64L-G16RevA.03\State=1-A\HF=-470.733318
 9\MP2=-472.3170946\RMSD=1.891e-09\PG=C01 [X(C12H28)]\\@


 WE MIGHT AS WELL ATTEMPT TO INTRODUCE A NEW PLANET 
 INTO THE SOLAR SYSTEM, OR TO ANNIHILATE ONE ALREADYIN EXISTENCE, 
 AS TO CREATE OR DESTROY A PARTICLE OF HYDROGEN.
 ALL THE CHANGES WE CAN PRODUCE CONSIST IN SEPARATING PARTICLES
 THAT ARE IN A STATE OF ... COMBINATION, AND JOINING 
 THOSE THAT WERE PREVIOUSLY AT A DISTANCE.

                                    -- JOHN DALTON, 1810
 Job cpu time:       0 days  0 hours  2 minutes 23.2 seconds.
 Elapsed time:       0 days  0 hours  1 minutes 19.7 seconds.
 File lengths (MBytes):  RWF=     26 Int=      0 D2E=      0 Chk=      5 Scr=      1
 Normal termination of Gaussian 16 at Wed May  5 23:02:06 2021.
