 Entering Gaussian System, Link 0=/opt/gaussian/g16_legacy/g16
 Input=gaussian_02267_2_2.com
 Output=gaussian_02267_2_2.log
 Initial command:
 /opt/gaussian/g16_legacy/l1.exe "/scratch-local/jramos/2601755/Gau-32105.inp" -scrdir="/scratch-local/jramos/2601755/"
 Entering Link 1 = /opt/gaussian/g16_legacy/l1.exe PID=     32106.
  
 Copyright (c) 1988,1990,1992,1993,1995,1998,2003,2009,2016,
            Gaussian, Inc.  All Rights Reserved.
  
 This is part of the Gaussian(R) 16 program.  It is based on
 the Gaussian(R) 09 system (copyright 2009, Gaussian, Inc.),
 the Gaussian(R) 03 system (copyright 2003, Gaussian, Inc.),
 the Gaussian(R) 98 system (copyright 1998, Gaussian, Inc.),
 the Gaussian(R) 94 system (copyright 1995, Gaussian, Inc.),
 the Gaussian 92(TM) system (copyright 1992, Gaussian, Inc.),
 the Gaussian 90(TM) system (copyright 1990, Gaussian, Inc.),
 the Gaussian 88(TM) system (copyright 1988, Gaussian, Inc.),
 the Gaussian 86(TM) system (copyright 1986, Carnegie Mellon
 University), and the Gaussian 82(TM) system (copyright 1983,
 Carnegie Mellon University). Gaussian is a federally registered
 trademark of Gaussian, Inc.
  
 This software contains proprietary and confidential information,
 including trade secrets, belonging to Gaussian, Inc.
  
 This software is provided under written license and may be
 used, copied, transmitted, or stored only in accord with that
 written license.
  
 The following legend is applicable only to US Government
 contracts under FAR:
  
                    RESTRICTED RIGHTS LEGEND
  
 Use, reproduction and disclosure by the US Government is
 subject to restrictions as set forth in subparagraphs (a)
 and (c) of the Commercial Computer Software - Restricted
 Rights clause in FAR 52.227-19.
  
 Gaussian, Inc.
 340 Quinnipiac St., Bldg. 40, Wallingford CT 06492
  
  
 ---------------------------------------------------------------
 Warning -- This program may not be used in any manner that
 competes with the business of Gaussian, Inc. or will provide
 assistance to any competitor of Gaussian, Inc.  The licensee
 of this program is prohibited from giving any competitor of
 Gaussian, Inc. access to this program.  By using this program,
 the user acknowledges that Gaussian, Inc. is engaged in the
 business of creating and licensing software in the field of
 computational chemistry and represents and warrants to the
 licensee that it is not a competitor of Gaussian, Inc. and that
 it will not use this program in any manner prohibited above.
 ---------------------------------------------------------------
  

 Cite this work as:
 Gaussian 16, Revision A.03,
 M. J. Frisch, G. W. Trucks, H. B. Schlegel, G. E. Scuseria, 
 M. A. Robb, J. R. Cheeseman, G. Scalmani, V. Barone, 
 G. A. Petersson, H. Nakatsuji, X. Li, M. Caricato, A. V. Marenich, 
 J. Bloino, B. G. Janesko, R. Gomperts, B. Mennucci, H. P. Hratchian, 
 J. V. Ortiz, A. F. Izmaylov, J. L. Sonnenberg, D. Williams-Young, 
 F. Ding, F. Lipparini, F. Egidi, J. Goings, B. Peng, A. Petrone, 
 T. Henderson, D. Ranasinghe, V. G. Zakrzewski, J. Gao, N. Rega, 
 G. Zheng, W. Liang, M. Hada, M. Ehara, K. Toyota, R. Fukuda, 
 J. Hasegawa, M. Ishida, T. Nakajima, Y. Honda, O. Kitao, H. Nakai, 
 T. Vreven, K. Throssell, J. A. Montgomery, Jr., J. E. Peralta, 
 F. Ogliaro, M. J. Bearpark, J. J. Heyd, E. N. Brothers, K. N. Kudin, 
 V. N. Staroverov, T. A. Keith, R. Kobayashi, J. Normand, 
 K. Raghavachari, A. P. Rendell, J. C. Burant, S. S. Iyengar, 
 J. Tomasi, M. Cossi, J. M. Millam, M. Klene, C. Adamo, R. Cammi, 
 J. W. Ochterski, R. L. Martin, K. Morokuma, O. Farkas, 
 J. B. Foresman, and D. J. Fox, Gaussian, Inc., Wallingford CT, 2016.
 
 ******************************************
 Gaussian 16:  EM64L-G16RevA.03 25-Dec-2016
                 6-May-2021 
 ******************************************
 %chk=gaussian_02267_2_2.chk
 %nproc=2
 Will use up to    2 processors via shared memory.
 %mem=4000Mb
 -------------
 #p 6-31g* mp2
 -------------
 1/38=1,172=1/1;
 2/12=2,17=6,18=5,40=1/2;
 3/5=1,6=6,7=1,11=9,25=1,30=1/1,2,3;
 4//1;
 5/5=2,38=5/2;
 8/10=2/1;
 9/16=-3/6;
 6/7=2,8=2,9=2,10=2/1;
 99/5=1,9=1/99;
 Leave Link    1 at Thu May  6 21:11:03 2021, MaxMem=   524288000 cpu:               0.1 elap:               0.1
 (Enter /opt/gaussian/g16_legacy/l101.exe)
 ------------------------------------------------------
 Input file generated by CHIRIPA (05-May-2021 14:57:24)
 ------------------------------------------------------
 Symbolic Z-matrix:
 Charge =  0 Multiplicity = 1
 C                     1.91414   0.        0. 
 C                     1.21414   1.211     0. 
 C                    -0.18386   1.223     0. 
 C                    -0.85286   0.        0. 
 C                    -0.18386  -1.223     0. 
 C                     1.21414  -1.211     0. 
 H                     3.00014   0.        0. 
 H                     1.75514   2.153     0. 
 H                    -0.75086   2.146     0. 
 H                    -0.75086  -2.146     0. 
 H                     1.75514  -2.153     0. 
 N                    -2.33286   0.        0. 
 O                    -2.89886  -1.091     0. 
 O                    -2.89886   1.091     0. 
 C                     0.35648  -2.88039   3.03498 
 C                     1.45939  -2.11454   3.42686 
 C                     1.27852  -0.88095   4.0594 
 C                    -0.02504  -0.44173   4.28545 
 C                    -1.14412  -1.18173   3.90683 
 C                    -0.93948  -2.41237   3.27579 
 H                     0.50622  -3.83752   2.54419 
 H                     2.46699  -2.4755    3.24113 
 H                     2.11452  -0.26773   4.37321 
 H                    -2.13648  -0.79552   4.1055 
 H                    -1.79788  -3.005     2.97255 
 N                    -0.22911   0.86265   4.9543 
 O                    -1.38773   1.22733   5.14204 
 O                     0.77343   1.49564   5.27814 
 
 ITRead=  0  0  0  0  0  0  0  0  0  0  0  0  0  0  0  0  0  0  0  0
 ITRead=  0  0  0  0  0  0  0  0
 MicOpt= -1 -1 -1 -1 -1 -1 -1 -1 -1 -1 -1 -1 -1 -1 -1 -1 -1 -1 -1 -1
 MicOpt= -1 -1 -1 -1 -1 -1 -1 -1
 NAtoms=     28 NQM=       28 NQMF=       0 NMMI=      0 NMMIF=      0
                NMic=       0 NMicF=      0.
                    Isotopes and Nuclear Properties:
 (Nuclear quadrupole moments (NQMom) in fm**2, nuclear magnetic moments (NMagM)
  in nuclear magnetons)

  Atom         1           2           3           4           5           6           7           8           9          10
 IAtWgt=          12          12          12          12          12          12           1           1           1           1
 AtmWgt=  12.0000000  12.0000000  12.0000000  12.0000000  12.0000000  12.0000000   1.0078250   1.0078250   1.0078250   1.0078250
 NucSpn=           0           0           0           0           0           0           1           1           1           1
 AtZEff=  -0.0000000  -0.0000000  -0.0000000  -0.0000000  -0.0000000  -0.0000000  -0.0000000  -0.0000000  -0.0000000  -0.0000000
 NQMom=    0.0000000   0.0000000   0.0000000   0.0000000   0.0000000   0.0000000   0.0000000   0.0000000   0.0000000   0.0000000
 NMagM=    0.0000000   0.0000000   0.0000000   0.0000000   0.0000000   0.0000000   2.7928460   2.7928460   2.7928460   2.7928460
 AtZNuc=   6.0000000   6.0000000   6.0000000   6.0000000   6.0000000   6.0000000   1.0000000   1.0000000   1.0000000   1.0000000

  Atom        11          12          13          14          15          16          17          18          19          20
 IAtWgt=           1          14          16          16          12          12          12          12          12          12
 AtmWgt=   1.0078250  14.0030740  15.9949146  15.9949146  12.0000000  12.0000000  12.0000000  12.0000000  12.0000000  12.0000000
 NucSpn=           1           2           0           0           0           0           0           0           0           0
 AtZEff=  -0.0000000  -0.0000000  -0.0000000  -0.0000000  -0.0000000  -0.0000000  -0.0000000  -0.0000000  -0.0000000  -0.0000000
 NQMom=    0.0000000   2.0440000   0.0000000   0.0000000   0.0000000   0.0000000   0.0000000   0.0000000   0.0000000   0.0000000
 NMagM=    2.7928460   0.4037610   0.0000000   0.0000000   0.0000000   0.0000000   0.0000000   0.0000000   0.0000000   0.0000000
 AtZNuc=   1.0000000   7.0000000   8.0000000   8.0000000   6.0000000   6.0000000   6.0000000   6.0000000   6.0000000   6.0000000

  Atom        21          22          23          24          25          26          27          28
 IAtWgt=           1           1           1           1           1          14          16          16
 AtmWgt=   1.0078250   1.0078250   1.0078250   1.0078250   1.0078250  14.0030740  15.9949146  15.9949146
 NucSpn=           1           1           1           1           1           2           0           0
 AtZEff=  -0.0000000  -0.0000000  -0.0000000  -0.0000000  -0.0000000  -0.0000000  -0.0000000  -0.0000000
 NQMom=    0.0000000   0.0000000   0.0000000   0.0000000   0.0000000   2.0440000   0.0000000   0.0000000
 NMagM=    2.7928460   2.7928460   2.7928460   2.7928460   2.7928460   0.4037610   0.0000000   0.0000000
 AtZNuc=   1.0000000   1.0000000   1.0000000   1.0000000   1.0000000   7.0000000   8.0000000   8.0000000
 Leave Link  101 at Thu May  6 21:11:03 2021, MaxMem=   524288000 cpu:               0.1 elap:               0.1
 (Enter /opt/gaussian/g16_legacy/l202.exe)
                          Input orientation:                          
 ---------------------------------------------------------------------
 Center     Atomic      Atomic             Coordinates (Angstroms)
 Number     Number       Type             X           Y           Z
 ---------------------------------------------------------------------
      1          6           0        1.914143    0.000000    0.000000
      2          6           0        1.214143    1.211000    0.000000
      3          6           0       -0.183857    1.223000    0.000000
      4          6           0       -0.852857    0.000000    0.000000
      5          6           0       -0.183857   -1.223000    0.000000
      6          6           0        1.214143   -1.211000    0.000000
      7          1           0        3.000143    0.000000    0.000000
      8          1           0        1.755143    2.153000    0.000000
      9          1           0       -0.750857    2.146000    0.000000
     10          1           0       -0.750857   -2.146000    0.000000
     11          1           0        1.755143   -2.153000    0.000000
     12          7           0       -2.332857    0.000000    0.000000
     13          8           0       -2.898857   -1.091000    0.000000
     14          8           0       -2.898857    1.091000    0.000000
     15          6           0        0.356476   -2.880386    3.034981
     16          6           0        1.459392   -2.114536    3.426862
     17          6           0        1.278519   -0.880952    4.059400
     18          6           0       -0.025043   -0.441728    4.285454
     19          6           0       -1.144118   -1.181732    3.906834
     20          6           0       -0.939475   -2.412365    3.275794
     21          1           0        0.506215   -3.837517    2.544192
     22          1           0        2.466988   -2.475503    3.241128
     23          1           0        2.114524   -0.267734    4.373211
     24          1           0       -2.136481   -0.795515    4.105504
     25          1           0       -1.797883   -3.005004    2.972547
     26          7           0       -0.229107    0.862650    4.954301
     27          8           0       -1.387727    1.227328    5.142040
     28          8           0        0.773431    1.495644    5.278139
 ---------------------------------------------------------------------
                    Distance matrix (angstroms):
                    1          2          3          4          5
     1  C    0.000000
     2  C    1.398757   0.000000
     3  C    2.428443   1.398052   0.000000
     4  C    2.767000   2.395623   1.394019   0.000000
     5  C    2.428443   2.806913   2.446000   1.394019   0.000000
     6  C    1.398757   2.422000   2.806913   2.395623   1.398052
     7  H    1.086000   2.157850   3.410804   3.853000   3.410804
     8  H    2.158863   1.086299   2.150493   3.381874   3.893212
     9  H    3.421628   2.176109   1.083244   2.148423   3.416380
    10  H    3.421628   3.889817   3.416380   2.148423   1.083244
    11  H    2.158863   3.407224   3.893212   3.381874   2.150493
    12  N    4.247000   3.748030   2.472636   1.480000   2.472636
    13  O    4.935104   4.713382   3.567327   2.318706   2.718207
    14  O    4.935104   4.114750   2.718207   2.318706   3.567327
    15  C    4.464758   5.165863   5.132333   4.355482   3.500000
    16  C    4.052338   4.781498   5.057944   4.643398   3.903650
    17  C    4.202240   4.567180   4.800405   4.668787   4.328310
    18  C    4.724477   4.757332   4.600180   4.386971   4.358982
    19  C    5.100275   5.152661   4.687023   4.092026   4.023327
    20  C    4.969252   5.338321   4.951531   4.069132   3.566003
    21  H    4.814739   5.697508   5.705957   4.800680   3.712790
    22  H    4.115661   5.066047   5.586664   5.258745   4.370429
    23  H    4.385979   4.703436   5.160409   5.291692   5.031904
    24  H    5.821990   5.666387   4.974164   4.374437   4.566251
    25  H    5.625409   5.973527   5.414530   4.331184   3.823173
    26  N    5.466515   5.171984   4.967595   5.067379   5.375601
    27  O    6.232917   5.762861   5.281089   5.313473   5.821854
    28  O    5.603296   5.304149   5.371172   5.721933   6.013832
                    6          7          8          9         10
     6  C    0.000000
     7  H    2.157850   0.000000
     8  H    3.407224   2.487053   0.000000
     9  H    3.889817   4.321495   2.506010   0.000000
    10  H    2.176109   4.321495   4.976087   4.292000   0.000000
    11  H    1.086299   2.487053   4.306000   4.976087   2.506010
    12  N    3.748030   5.333000   4.620298   2.666091   2.666091
    13  O    4.114750   5.999040   5.673028   3.884852   2.393100
    14  O    4.713382   5.999040   4.773632   2.393100   3.884852
    15  C    3.568410   4.949415   6.041718   5.975103   3.313098
    16  C    3.552451   4.311445   5.481124   5.897521   4.077937
    17  C    4.073304   4.496531   5.090262   5.455230   4.711416
    18  C    4.526862   5.264218   5.316652   5.058484   4.668668
    19  C    4.563508   5.816764   5.898263   5.147019   4.043244
    20  C    4.100265   5.663119   6.231721   5.616502   3.292014
    21  H    3.724603   5.236328   6.627143   6.622357   3.303691
    22  H    3.697769   4.113062   5.695145   6.497517   4.579084
    23  H    4.563487   4.470009   5.011395   5.758602   5.555472
    24  H    5.315494   6.623663   6.379157   5.237139   4.538604
    25  H    4.596388   6.394305   6.932895   6.038637   3.266525
    26  N    5.561303   5.976397   5.490660   5.144347   5.819733
    27  O    6.257455   6.870248   6.097137   5.262142   6.182679
    28  O    5.948016   5.920638   5.408755   5.532194   6.591189
                   11         12         13         14         15
    11  H    0.000000
    12  N    4.620298   0.000000
    13  O    4.773632   1.229080   0.000000
    14  O    5.673028   1.229080   2.182000   0.000000
    15  C    3.420010   4.973957   4.796895   5.964915   0.000000
    16  C    3.439816   5.531347   5.637849   6.404153   1.398757
    17  C    4.280655   5.504257   5.828664   6.149617   2.428443
    18  C    4.945971   4.887356   5.200527   5.382674   2.767001
    19  C    4.961091   4.251228   4.283771   4.848481   2.428443
    20  C    4.249596   4.300214   4.039308   5.181078   1.398758
    21  H    3.297019   5.409231   5.060710   6.508280   1.086000
    22  H    3.334013   6.298535   6.419817   7.212291   2.158863
    23  H    4.775810   6.243064   6.703486   6.790075   3.421629
    24  H    5.817445   4.186475   4.186131   4.582065   3.421628
    25  H    4.710195   4.260549   3.702917   5.179327   2.158863
    26  N    6.129967   5.451149   5.957299   5.632478   4.247001
    27  O    6.909763   5.370305   5.839412   5.361220   4.935104
    28  O    6.491157   6.304342   6.930741   6.442685   4.935104
                   16         17         18         19         20
    16  C    0.000000
    17  C    1.398052   0.000000
    18  C    2.395624   1.394020   0.000000
    19  C    2.806913   2.446000   1.394019   0.000000
    20  C    2.422001   2.806913   2.395623   1.398051   0.000000
    21  H    2.157850   3.410804   3.853000   3.410804   2.157851
    22  H    1.086298   2.150493   3.381875   3.893211   3.407224
    23  H    2.176109   1.083244   2.148423   3.416379   3.889817
    24  H    3.889817   3.416380   2.148422   1.083244   2.176108
    25  H    3.407224   3.893211   3.381874   2.150493   1.086298
    26  N    3.748031   2.472637   1.480000   2.472636   3.748030
    27  O    4.713383   3.567327   2.318705   2.718207   4.114750
    28  O    4.114750   2.718207   2.318705   3.567326   4.713382
                   21         22         23         24         25
    21  H    0.000000
    22  H    2.487053   0.000000
    23  H    4.321495   2.506010   0.000000
    24  H    4.321494   4.976086   4.292000   0.000000
    25  H    2.487053   4.306000   4.976086   2.506009   0.000000
    26  N    5.333000   4.620298   2.666091   2.666091   4.620298
    27  O    5.999040   5.673028   3.884851   2.393101   4.773632
    28  O    5.999040   4.773631   2.393100   3.884851   5.673028
                   26         27         28
    26  N    0.000000
    27  O    1.229079   0.000000
    28  O    1.229079   2.181999   0.000000
 Stoichiometry    C12H10N2O4
 Framework group  C1[X(C12H10N2O4)]
 Deg. of freedom    78
 Full point group                 C1      NOp   1
 Largest Abelian subgroup         C1      NOp   1
 Largest concise Abelian subgroup C1      NOp   1
                         Standard orientation:                         
 ---------------------------------------------------------------------
 Center     Atomic      Atomic             Coordinates (Angstroms)
 Number     Number       Type             X           Y           Z
 ---------------------------------------------------------------------
      1          6           0        1.538857    2.110028   -1.596504
      2          6           0        1.731770    0.905433   -2.280798
      3          6           0        2.049444   -0.264098   -1.583784
      4          6           0        2.166949   -0.192572   -0.196568
      5          6           0        1.980736    0.992389    0.513700
      6          6           0        1.663736    2.149592   -0.203895
      7          1           0        1.292342    3.013759   -2.145955
      8          1           0        1.635427    0.871738   -3.362291
      9          1           0        2.204077   -1.210071   -2.088403
     10          1           0        2.083514    0.994688    1.592055
     11          1           0        1.514471    3.083689    0.330172
     12          7           0        2.502900   -1.424177    0.552223
     13          8           0        2.600732   -1.334746    1.774135
     14          8           0        2.662025   -2.455618   -0.096964
     15          6           0       -1.142999    1.659525    1.944506
     16          6           0       -1.753334    2.102074    0.766303
     17          6           0       -2.293396    1.185764   -0.141033
     18          6           0       -2.205219   -0.171854    0.162925
     19          6           0       -1.603399   -0.643897    1.328376
     20          6           0       -1.070109    0.290365    2.221295
     21          1           0       -0.726096    2.378309    2.643746
     22          1           0       -1.811381    3.164778    0.548739
     23          1           0       -2.771430    1.500910   -1.060589
     24          1           0       -1.560694   -1.709597    1.517787
     25          1           0       -0.596695   -0.056202    3.135524
     26          7           0       -2.773374   -1.151413   -0.790000
     27          8           0       -2.682893   -2.342119   -0.499022
     28          8           0       -3.298417   -0.709937   -1.809835
 ---------------------------------------------------------------------
 Rotational constants (GHZ):           0.5181832           0.3098926           0.2874755
 Leave Link  202 at Thu May  6 21:11:03 2021, MaxMem=   524288000 cpu:               0.0 elap:               0.1
 (Enter /opt/gaussian/g16_legacy/l301.exe)
 Standard basis: 6-31G(d) (6D, 7F)
 Ernie: Thresh=  0.10000D-02 Tol=  0.10000D-05 Strict=F.
 There are   290 symmetry adapted cartesian basis functions of A   symmetry.
 There are   290 symmetry adapted basis functions of A   symmetry.
   290 basis functions,   544 primitive gaussians,   290 cartesian basis functions
    64 alpha electrons       64 beta electrons
       nuclear repulsion energy      1254.9880503684 Hartrees.
 IExCor=    0 DFT=F Ex=HF Corr=None ExCW=0 ScaHFX=  1.000000
 ScaDFX=  1.000000  1.000000  1.000000  1.000000 ScalE2=  1.000000  1.000000
 IRadAn=      5 IRanWt=     -1 IRanGd=            0 ICorTp=0 IEmpDi=  4
 NAtoms=   28 NActive=   28 NUniq=   28 SFac= 1.00D+00 NAtFMM=   60 NAOKFM=F Big=F
 Integral buffers will be    131072 words long.
 Raffenetti 1 integral format.
 Two-electron integral symmetry is turned on.
 Leave Link  301 at Thu May  6 21:11:04 2021, MaxMem=   524288000 cpu:               0.2 elap:               0.2
 (Enter /opt/gaussian/g16_legacy/l302.exe)
 NPDir=0 NMtPBC=     1 NCelOv=     1 NCel=       1 NClECP=     1 NCelD=      1
         NCelK=      1 NCelE2=     1 NClLst=     1 CellRange=     0.0.
 One-electron integrals computed using PRISM.
 One-electron integral symmetry used in STVInt
 NBasis=   290 RedAO= T EigKep=  4.70D-04  NBF=   290
 NBsUse=   290 1.00D-06 EigRej= -1.00D+00 NBFU=   290
 Leave Link  302 at Thu May  6 21:11:04 2021, MaxMem=   524288000 cpu:               0.5 elap:               0.4
 (Enter /opt/gaussian/g16_legacy/l303.exe)
 DipDrv:  MaxL=1.
 Leave Link  303 at Thu May  6 21:11:04 2021, MaxMem=   524288000 cpu:               0.1 elap:               0.1
 (Enter /opt/gaussian/g16_legacy/l401.exe)
 ExpMin= 1.61D-01 ExpMax= 5.48D+03 ExpMxC= 8.25D+02 IAcc=3 IRadAn=         5 AccDes= 0.00D+00
 Harris functional with IExCor=  205 and IRadAn=       5 diagonalized for initial guess.
 HarFok:  IExCor=  205 AccDes= 0.00D+00 IRadAn=         5 IDoV= 1 UseB2=F ITyADJ=14
 ICtDFT=  3500011 ScaDFX=  1.000000  1.000000  1.000000  1.000000
 FoFCou: FMM=F IPFlag=           0 FMFlag=      100000 FMFlg1=           0
         NFxFlg=           0 DoJE=T BraDBF=F KetDBF=T FulRan=T
         wScrn=  0.000000 ICntrl=       500 IOpCl=  0 I1Cent=   200000004 NGrid=           0
         NMat0=    1 NMatS0=      1 NMatT0=    0 NMatD0=    1 NMtDS0=    0 NMtDT0=    0
 Petite list used in FoFCou.
 Harris En= -869.213908206722    
 JPrj=0 DoOrth=F DoCkMO=F.
 Leave Link  401 at Thu May  6 21:11:09 2021, MaxMem=   524288000 cpu:               8.3 elap:               4.3
 (Enter /opt/gaussian/g16_legacy/l502.exe)
 Integral symmetry usage will be decided dynamically.
 Closed shell SCF:
 Using DIIS extrapolation, IDIIS=  1040.
 NGot=   524288000 LenX=   524114954 LenY=   524030413
 Requested convergence on RMS density matrix=1.00D-08 within 128 cycles.
 Requested convergence on MAX density matrix=1.00D-06.
 Requested convergence on             energy=1.00D-06.
 No special actions if energy rises.
 Fock matrices will be formed incrementally for  20 cycles.
 Integral accuracy reduced to 1.0D-05 until final iterations.

 Cycle   1  Pass 0  IDiag  1:
 FoFJK:  IHMeth= 1 ICntrl=       0 DoSepK=F KAlg= 0 I1Cent=           0 FoldK=F
 IRaf= 840000000 NMat=       1 IRICut=       1 DoRegI=T DoRafI=F ISym2E= 0 IDoP0=0 IntGTp=1.
 FoFCou: FMM=F IPFlag=           0 FMFlag=      100000 FMFlg1=           0
         NFxFlg=           0 DoJE=F BraDBF=F KetDBF=F FulRan=T
         wScrn=  0.000000 ICntrl=         0 IOpCl=  0 I1Cent=           0 NGrid=           0
         NMat0=    1 NMatS0=      1 NMatT0=    0 NMatD0=    1 NMtDS0=    0 NMtDT0=    0
 Symmetry not used in FoFCou.
 E= -867.609432914169    
 DIIS: error= 5.23D-02 at cycle   1 NSaved=   1.
 NSaved= 1 IEnMin= 1 EnMin= -867.609432914169     IErMin= 1 ErrMin= 5.23D-02
 ErrMax= 5.23D-02  0.00D+00 EMaxC= 1.00D-01 BMatC= 1.28D+00 BMatP= 1.28D+00
 IDIUse=3 WtCom= 4.77D-01 WtEn= 5.23D-01
 Coeff-Com:  0.100D+01
 Coeff-En:   0.100D+01
 Coeff:      0.100D+01
 Gap=     0.553 Goal=   None    Shift=    0.000
 GapD=    0.553 DampG=2.000 DampE=0.500 DampFc=1.0000 IDamp=-1.
 RMSDP=4.46D-03 MaxDP=8.76D-02              OVMax= 1.47D-01

 Cycle   2  Pass 0  IDiag  1:
 RMSU=  4.35D-03    CP:  9.52D-01
 E= -868.116621402490     Delta-E=       -0.507188488320 Rises=F Damp=F
 DIIS: error= 2.76D-02 at cycle   2 NSaved=   2.
 NSaved= 2 IEnMin= 2 EnMin= -868.116621402490     IErMin= 2 ErrMin= 2.76D-02
 ErrMax= 2.76D-02  0.00D+00 EMaxC= 1.00D-01 BMatC= 2.90D-01 BMatP= 1.28D+00
 IDIUse=3 WtCom= 7.24D-01 WtEn= 2.76D-01
 Coeff-Com:  0.268D+00 0.732D+00
 Coeff-En:   0.000D+00 0.100D+01
 Coeff:      0.194D+00 0.806D+00
 Gap=     0.465 Goal=   None    Shift=    0.000
 RMSDP=1.85D-03 MaxDP=8.44D-02 DE=-5.07D-01 OVMax= 1.20D-01

 Cycle   3  Pass 0  IDiag  1:
 RMSU=  1.63D-03    CP:  9.54D-01  8.00D-01
 E= -868.289737117369     Delta-E=       -0.173115714880 Rises=F Damp=F
 DIIS: error= 1.30D-02 at cycle   3 NSaved=   3.
 NSaved= 3 IEnMin= 3 EnMin= -868.289737117369     IErMin= 3 ErrMin= 1.30D-02
 ErrMax= 1.30D-02  0.00D+00 EMaxC= 1.00D-01 BMatC= 6.07D-02 BMatP= 2.90D-01
 IDIUse=3 WtCom= 8.70D-01 WtEn= 1.30D-01
 Coeff-Com: -0.224D-01 0.295D+00 0.727D+00
 Coeff-En:   0.000D+00 0.461D-01 0.954D+00
 Coeff:     -0.195D-01 0.263D+00 0.757D+00
 Gap=     0.408 Goal=   None    Shift=    0.000
 RMSDP=6.65D-04 MaxDP=2.76D-02 DE=-1.73D-01 OVMax= 4.26D-02

 Cycle   4  Pass 0  IDiag  1:
 RMSU=  3.90D-04    CP:  9.53D-01  8.94D-01  7.84D-01
 E= -868.333070991096     Delta-E=       -0.043333873727 Rises=F Damp=F
 DIIS: error= 2.57D-03 at cycle   4 NSaved=   4.
 NSaved= 4 IEnMin= 4 EnMin= -868.333070991096     IErMin= 4 ErrMin= 2.57D-03
 ErrMax= 2.57D-03  0.00D+00 EMaxC= 1.00D-01 BMatC= 2.29D-03 BMatP= 6.07D-02
 IDIUse=3 WtCom= 9.74D-01 WtEn= 2.57D-02
 Coeff-Com: -0.127D-01 0.501D-01 0.244D+00 0.719D+00
 Coeff-En:   0.000D+00 0.000D+00 0.000D+00 0.100D+01
 Coeff:     -0.124D-01 0.488D-01 0.238D+00 0.726D+00
 Gap=     0.400 Goal=   None    Shift=    0.000
 RMSDP=1.69D-04 MaxDP=5.69D-03 DE=-4.33D-02 OVMax= 8.97D-03

 Cycle   5  Pass 0  IDiag  1:
 RMSU=  1.17D-04    CP:  9.53D-01  8.97D-01  8.44D-01  8.14D-01
 E= -868.335136441419     Delta-E=       -0.002065450323 Rises=F Damp=F
 DIIS: error= 4.82D-04 at cycle   5 NSaved=   5.
 NSaved= 5 IEnMin= 5 EnMin= -868.335136441419     IErMin= 5 ErrMin= 4.82D-04
 ErrMax= 4.82D-04  0.00D+00 EMaxC= 1.00D-01 BMatC= 8.75D-05 BMatP= 2.29D-03
 IDIUse=3 WtCom= 9.95D-01 WtEn= 4.82D-03
 Coeff-Com:  0.169D-02-0.223D-01-0.597D-01 0.274D-01 0.105D+01
 Coeff-En:   0.000D+00 0.000D+00 0.000D+00 0.000D+00 0.100D+01
 Coeff:      0.168D-02-0.222D-01-0.594D-01 0.273D-01 0.105D+01
 Gap=     0.402 Goal=   None    Shift=    0.000
 RMSDP=5.96D-05 MaxDP=1.85D-03 DE=-2.07D-03 OVMax= 4.11D-03

 Cycle   6  Pass 0  IDiag  1:
 RMSU=  3.05D-05    CP:  9.52D-01  9.01D-01  8.54D-01  9.14D-01  1.19D+00
 E= -868.335310251023     Delta-E=       -0.000173809604 Rises=F Damp=F
 DIIS: error= 2.60D-04 at cycle   6 NSaved=   6.
 NSaved= 6 IEnMin= 6 EnMin= -868.335310251023     IErMin= 6 ErrMin= 2.60D-04
 ErrMax= 2.60D-04  0.00D+00 EMaxC= 1.00D-01 BMatC= 1.26D-05 BMatP= 8.75D-05
 IDIUse=3 WtCom= 9.97D-01 WtEn= 2.60D-03
 Coeff-Com:  0.145D-02-0.917D-02-0.355D-01-0.623D-01 0.148D+00 0.958D+00
 Coeff-En:   0.000D+00 0.000D+00 0.000D+00 0.000D+00 0.000D+00 0.100D+01
 Coeff:      0.145D-02-0.915D-02-0.354D-01-0.621D-01 0.147D+00 0.958D+00
 Gap=     0.402 Goal=   None    Shift=    0.000
 RMSDP=2.35D-05 MaxDP=5.90D-04 DE=-1.74D-04 OVMax= 1.79D-03

 Cycle   7  Pass 0  IDiag  1:
 RMSU=  1.26D-05    CP:  9.52D-01  9.02D-01  8.58D-01  9.33D-01  1.33D+00
                    CP:  1.19D+00
 E= -868.335342140353     Delta-E=       -0.000031889330 Rises=F Damp=F
 DIIS: error= 1.41D-04 at cycle   7 NSaved=   7.
 NSaved= 7 IEnMin= 7 EnMin= -868.335342140353     IErMin= 7 ErrMin= 1.41D-04
 ErrMax= 1.41D-04  0.00D+00 EMaxC= 1.00D-01 BMatC= 2.94D-06 BMatP= 1.26D-05
 IDIUse=3 WtCom= 9.99D-01 WtEn= 1.41D-03
 Coeff-Com:  0.771D-04 0.114D-02 0.775D-03-0.144D-01-0.128D+00 0.192D+00
 Coeff-Com:  0.949D+00
 Coeff-En:   0.000D+00 0.000D+00 0.000D+00 0.000D+00 0.000D+00 0.000D+00
 Coeff-En:   0.100D+01
 Coeff:      0.770D-04 0.114D-02 0.773D-03-0.144D-01-0.128D+00 0.191D+00
 Coeff:      0.949D+00
 Gap=     0.402 Goal=   None    Shift=    0.000
 RMSDP=1.11D-05 MaxDP=4.55D-04 DE=-3.19D-05 OVMax= 1.17D-03

 Cycle   8  Pass 0  IDiag  1:
 RMSU=  6.13D-06    CP:  9.52D-01  9.02D-01  8.58D-01  9.40D-01  1.37D+00
                    CP:  1.42D+00  1.17D+00
 E= -868.335351026297     Delta-E=       -0.000008885944 Rises=F Damp=F
 DIIS: error= 6.69D-05 at cycle   8 NSaved=   8.
 NSaved= 8 IEnMin= 8 EnMin= -868.335351026297     IErMin= 8 ErrMin= 6.69D-05
 ErrMax= 6.69D-05  0.00D+00 EMaxC= 1.00D-01 BMatC= 7.64D-07 BMatP= 2.94D-06
 IDIUse=1 WtCom= 1.00D+00 WtEn= 0.00D+00
 Coeff-Com: -0.352D-03 0.264D-02 0.944D-02 0.149D-01-0.616D-01-0.214D+00
 Coeff-Com:  0.157D+00 0.109D+01
 Coeff:     -0.352D-03 0.264D-02 0.944D-02 0.149D-01-0.616D-01-0.214D+00
 Coeff:      0.157D+00 0.109D+01
 Gap=     0.402 Goal=   None    Shift=    0.000
 RMSDP=7.32D-06 MaxDP=2.73D-04 DE=-8.89D-06 OVMax= 7.84D-04

 Initial convergence to 1.0D-05 achieved.  Increase integral accuracy.
 Cycle   9  Pass 1  IDiag  1:
 E= -868.335357407369     Delta-E=       -0.000006381073 Rises=F Damp=F
 DIIS: error= 3.41D-05 at cycle   1 NSaved=   1.
 NSaved= 1 IEnMin= 1 EnMin= -868.335357407369     IErMin= 1 ErrMin= 3.41D-05
 ErrMax= 3.41D-05  0.00D+00 EMaxC= 1.00D-01 BMatC= 3.23D-07 BMatP= 3.23D-07
 IDIUse=1 WtCom= 1.00D+00 WtEn= 0.00D+00
 Coeff-Com:  0.100D+01
 Coeff:      0.100D+01
 Gap=     0.402 Goal=   None    Shift=    0.000
 RMSDP=7.32D-06 MaxDP=2.73D-04 DE=-6.38D-06 OVMax= 2.42D-04

 Cycle  10  Pass 1  IDiag  1:
 RMSU=  1.27D-05    CP:  1.00D+00
 E= -868.335357964417     Delta-E=       -0.000000557048 Rises=F Damp=F
 DIIS: error= 1.85D-05 at cycle   2 NSaved=   2.
 NSaved= 2 IEnMin= 2 EnMin= -868.335357964417     IErMin= 2 ErrMin= 1.85D-05
 ErrMax= 1.85D-05  0.00D+00 EMaxC= 1.00D-01 BMatC= 8.02D-08 BMatP= 3.23D-07
 IDIUse=1 WtCom= 1.00D+00 WtEn= 0.00D+00
 Coeff-Com:  0.142D+00 0.858D+00
 Coeff:      0.142D+00 0.858D+00
 Gap=     0.402 Goal=   None    Shift=    0.000
 RMSDP=1.53D-06 MaxDP=4.81D-05 DE=-5.57D-07 OVMax= 1.37D-04

 Cycle  11  Pass 1  IDiag  1:
 RMSU=  1.40D-06    CP:  1.00D+00  1.05D+00
 E= -868.335358153157     Delta-E=       -0.000000188740 Rises=F Damp=F
 DIIS: error= 1.49D-05 at cycle   3 NSaved=   3.
 NSaved= 3 IEnMin= 3 EnMin= -868.335358153157     IErMin= 3 ErrMin= 1.49D-05
 ErrMax= 1.49D-05  0.00D+00 EMaxC= 1.00D-01 BMatC= 3.90D-08 BMatP= 8.02D-08
 IDIUse=1 WtCom= 1.00D+00 WtEn= 0.00D+00
 Coeff-Com: -0.164D+00 0.282D+00 0.882D+00
 Coeff:     -0.164D+00 0.282D+00 0.882D+00
 Gap=     0.402 Goal=   None    Shift=    0.000
 RMSDP=1.18D-06 MaxDP=3.27D-05 DE=-1.89D-07 OVMax= 1.22D-04

 Cycle  12  Pass 1  IDiag  1:
 RMSU=  9.33D-07    CP:  1.00D+00  1.08D+00  1.41D+00
 E= -868.335358272753     Delta-E=       -0.000000119595 Rises=F Damp=F
 DIIS: error= 8.64D-06 at cycle   4 NSaved=   4.
 NSaved= 4 IEnMin= 4 EnMin= -868.335358272753     IErMin= 4 ErrMin= 8.64D-06
 ErrMax= 8.64D-06  0.00D+00 EMaxC= 1.00D-01 BMatC= 9.28D-09 BMatP= 3.90D-08
 IDIUse=1 WtCom= 1.00D+00 WtEn= 0.00D+00
 Coeff-Com: -0.391D-02-0.464D+00-0.362D+00 0.183D+01
 Coeff:     -0.391D-02-0.464D+00-0.362D+00 0.183D+01
 Gap=     0.402 Goal=   None    Shift=    0.000
 RMSDP=1.53D-06 MaxDP=4.48D-05 DE=-1.20D-07 OVMax= 1.76D-04

 Cycle  13  Pass 1  IDiag  1:
 RMSU=  2.73D-07    CP:  1.00D+00  1.10D+00  2.27D+00  1.95D+00
 E= -868.335358338786     Delta-E=       -0.000000066033 Rises=F Damp=F
 DIIS: error= 1.92D-06 at cycle   5 NSaved=   5.
 NSaved= 5 IEnMin= 5 EnMin= -868.335358338786     IErMin= 5 ErrMin= 1.92D-06
 ErrMax= 1.92D-06  0.00D+00 EMaxC= 1.00D-01 BMatC= 7.96D-10 BMatP= 9.28D-09
 IDIUse=1 WtCom= 1.00D+00 WtEn= 0.00D+00
 Coeff-Com:  0.133D-01-0.191D+00-0.210D+00 0.664D+00 0.724D+00
 Coeff:      0.133D-01-0.191D+00-0.210D+00 0.664D+00 0.724D+00
 Gap=     0.402 Goal=   None    Shift=    0.000
 RMSDP=1.97D-07 MaxDP=8.00D-06 DE=-6.60D-08 OVMax= 2.42D-05

 Cycle  14  Pass 1  IDiag  1:
 RMSU=  9.35D-08    CP:  1.00D+00  1.10D+00  2.36D+00  2.08D+00  9.69D-01
 E= -868.335358340390     Delta-E=       -0.000000001605 Rises=F Damp=F
 DIIS: error= 4.58D-07 at cycle   6 NSaved=   6.
 NSaved= 6 IEnMin= 6 EnMin= -868.335358340390     IErMin= 6 ErrMin= 4.58D-07
 ErrMax= 4.58D-07  0.00D+00 EMaxC= 1.00D-01 BMatC= 4.08D-11 BMatP= 7.96D-10
 IDIUse=1 WtCom= 1.00D+00 WtEn= 0.00D+00
 Coeff-Com: -0.961D-03 0.584D-01 0.521D-01-0.221D+00-0.641D-01 0.118D+01
 Coeff:     -0.961D-03 0.584D-01 0.521D-01-0.221D+00-0.641D-01 0.118D+01
 Gap=     0.402 Goal=   None    Shift=    0.000
 RMSDP=5.59D-08 MaxDP=1.40D-06 DE=-1.60D-09 OVMax= 3.94D-06

 Cycle  15  Pass 1  IDiag  1:
 RMSU=  3.21D-08    CP:  1.00D+00  1.10D+00  2.36D+00  2.09D+00  1.10D+00
                    CP:  1.24D+00
 E= -868.335358340559     Delta-E=       -0.000000000168 Rises=F Damp=F
 DIIS: error= 1.71D-07 at cycle   7 NSaved=   7.
 NSaved= 7 IEnMin= 7 EnMin= -868.335358340559     IErMin= 7 ErrMin= 1.71D-07
 ErrMax= 1.71D-07  0.00D+00 EMaxC= 1.00D-01 BMatC= 5.80D-12 BMatP= 4.08D-11
 IDIUse=1 WtCom= 1.00D+00 WtEn= 0.00D+00
 Coeff-Com: -0.211D-02 0.397D-01 0.410D-01-0.144D+00-0.117D+00 0.258D+00
 Coeff-Com:  0.923D+00
 Coeff:     -0.211D-02 0.397D-01 0.410D-01-0.144D+00-0.117D+00 0.258D+00
 Coeff:      0.923D+00
 Gap=     0.402 Goal=   None    Shift=    0.000
 RMSDP=1.94D-08 MaxDP=6.93D-07 DE=-1.68D-10 OVMax= 1.63D-06

 Cycle  16  Pass 1  IDiag  1:
 RMSU=  9.23D-09    CP:  1.00D+00  1.10D+00  2.36D+00  2.09D+00  1.13D+00
                    CP:  1.39D+00  1.19D+00
 E= -868.335358340554     Delta-E=        0.000000000004 Rises=F Damp=F
 DIIS: error= 3.65D-08 at cycle   8 NSaved=   8.
 NSaved= 8 IEnMin= 7 EnMin= -868.335358340559     IErMin= 8 ErrMin= 3.65D-08
 ErrMax= 3.65D-08  0.00D+00 EMaxC= 1.00D-01 BMatC= 5.05D-13 BMatP= 5.80D-12
 IDIUse=1 WtCom= 1.00D+00 WtEn= 0.00D+00
 Coeff-Com: -0.582D-03 0.853D-02 0.968D-02-0.305D-01-0.317D-01 0.118D-01
 Coeff-Com:  0.262D+00 0.771D+00
 Coeff:     -0.582D-03 0.853D-02 0.968D-02-0.305D-01-0.317D-01 0.118D-01
 Coeff:      0.262D+00 0.771D+00
 Gap=     0.402 Goal=   None    Shift=    0.000
 RMSDP=3.64D-09 MaxDP=9.48D-08 DE= 4.09D-12 OVMax= 2.42D-07

 SCF Done:  E(RHF) =  -868.335358341     A.U. after   16 cycles
            NFock= 16  Conv=0.36D-08     -V/T= 2.0030
 KE= 8.657102427194D+02 PE=-4.542823598187D+03 EE= 1.553789946759D+03
 Leave Link  502 at Thu May  6 21:11:55 2021, MaxMem=   524288000 cpu:              90.8 elap:              46.1
 (Enter /opt/gaussian/g16_legacy/l801.exe)
 ExpMin= 1.61D-01 ExpMax= 5.48D+03 ExpMxC= 8.25D+02 IAcc=3 IRadAn=         5 AccDes= 0.00D+00
 HarFok:  IExCor=  205 AccDes= 0.00D+00 IRadAn=         5 IDoV=-2 UseB2=F ITyADJ=14
 ICtDFT= 12500011 ScaDFX=  1.000000  1.000000  1.000000  1.000000
 Largest valence mixing into a core orbital is  1.94D-04
 Largest core mixing into a valence orbital is  4.00D-05
 Range of M.O.s used for correlation:    19   290
 NBasis=   290 NAE=    64 NBE=    64 NFC=    18 NFV=     0
 NROrb=    272 NOA=    46 NOB=    46 NVA=   226 NVB=   226
 Leave Link  801 at Thu May  6 21:11:55 2021, MaxMem=   524288000 cpu:               0.9 elap:               0.5
 (Enter /opt/gaussian/g16_legacy/l906.exe)
 FulOut=F Deriv=F AODrv=F NAtomX=    28
   MMem=          85  MDisk=          46 MDiskD=          46
  W3Min=     3014840 MinDsk=     3114491 NBas6D=         290
 NBas2D=       42681    NTT=       42195    LW2=     2000000
    MDV=   523890451 MDiskM=       24994 NBas2p=       35182
 Fully direct method using O(OVN) memory.
 IMap=   1   2   3   4   5   6   7   8   9  10  11  12  13  14  15  16  17  18  19  20
 IMap=  21  22  23  24  25  26  27  28  29  30  31  32  33  34  35  36  37  38  39  40
 IMap=  41  42  43  44  45  46
 JobTyp=1 Pass  1:  I=   1 to  46 NPSUse=  2 ParTrn=T ParDer=T DoDerP=F.
 Spin components of T(2) and E(2):
     alpha-alpha T2 =       0.1277971241D+00 E2=     -0.3609482363D+00
     alpha-beta  T2 =       0.6495975895D+00 E2=     -0.1884050604D+01
     beta-beta   T2 =       0.1277971241D+00 E2=     -0.3609482363D+00
 The integrals were generated   1 times.
 ANorm=    0.1380286868D+01
 E2 =    -0.2605947077D+01 EUMP2 =    -0.87094130541751D+03
 Leave Link  906 at Thu May  6 21:14:44 2021, MaxMem=   524288000 cpu:             336.6 elap:             168.8
 (Enter /opt/gaussian/g16_legacy/l601.exe)
 Copying SCF densities to generalized density rwf, IOpCl= 0 IROHF=0.

 **********************************************************************

            Population analysis using the SCF density.

 **********************************************************************

 Orbital symmetries:
       Occupied  (A) (A) (A) (A) (A) (A) (A) (A) (A) (A) (A) (A)
                 (A) (A) (A) (A) (A) (A) (A) (A) (A) (A) (A) (A)
                 (A) (A) (A) (A) (A) (A) (A) (A) (A) (A) (A) (A)
                 (A) (A) (A) (A) (A) (A) (A) (A) (A) (A) (A) (A)
                 (A) (A) (A) (A) (A) (A) (A) (A) (A) (A) (A) (A)
                 (A) (A) (A) (A)
       Virtual   (A) (A) (A) (A) (A) (A) (A) (A) (A) (A) (A) (A)
                 (A) (A) (A) (A) (A) (A) (A) (A) (A) (A) (A) (A)
                 (A) (A) (A) (A) (A) (A) (A) (A) (A) (A) (A) (A)
                 (A) (A) (A) (A) (A) (A) (A) (A) (A) (A) (A) (A)
                 (A) (A) (A) (A) (A) (A) (A) (A) (A) (A) (A) (A)
                 (A) (A) (A) (A) (A) (A) (A) (A) (A) (A) (A) (A)
                 (A) (A) (A) (A) (A) (A) (A) (A) (A) (A) (A) (A)
                 (A) (A) (A) (A) (A) (A) (A) (A) (A) (A) (A) (A)
                 (A) (A) (A) (A) (A) (A) (A) (A) (A) (A) (A) (A)
                 (A) (A) (A) (A) (A) (A) (A) (A) (A) (A) (A) (A)
                 (A) (A) (A) (A) (A) (A) (A) (A) (A) (A) (A) (A)
                 (A) (A) (A) (A) (A) (A) (A) (A) (A) (A) (A) (A)
                 (A) (A) (A) (A) (A) (A) (A) (A) (A) (A) (A) (A)
                 (A) (A) (A) (A) (A) (A) (A) (A) (A) (A) (A) (A)
                 (A) (A) (A) (A) (A) (A) (A) (A) (A) (A) (A) (A)
                 (A) (A) (A) (A) (A) (A) (A) (A) (A) (A) (A) (A)
                 (A) (A) (A) (A) (A) (A) (A) (A) (A) (A) (A) (A)
                 (A) (A) (A) (A) (A) (A) (A) (A) (A) (A) (A) (A)
                 (A) (A) (A) (A) (A) (A) (A) (A) (A) (A)
 The electronic state is 1-A.
 Alpha  occ. eigenvalues --  -20.61078 -20.61025 -20.60911 -20.60877 -15.86097
 Alpha  occ. eigenvalues --  -15.85949 -11.31389 -11.31375 -11.28026 -11.27997
 Alpha  occ. eigenvalues --  -11.27878 -11.27859 -11.27719 -11.27702 -11.27062
 Alpha  occ. eigenvalues --  -11.27039 -11.26893 -11.26874  -1.60125  -1.59972
 Alpha  occ. eigenvalues --   -1.39682  -1.39522  -1.19647  -1.19476  -1.09007
 Alpha  occ. eigenvalues --   -1.08946  -1.04969  -1.04957  -0.95849  -0.95767
 Alpha  occ. eigenvalues --   -0.86484  -0.86272  -0.82705  -0.82570  -0.77749
 Alpha  occ. eigenvalues --   -0.77602  -0.72324  -0.72166  -0.71458  -0.71289
 Alpha  occ. eigenvalues --   -0.70768  -0.70659  -0.65246  -0.65230  -0.65004
 Alpha  occ. eigenvalues --   -0.64948  -0.62345  -0.62287  -0.55534  -0.55499
 Alpha  occ. eigenvalues --   -0.54263  -0.53098  -0.53037  -0.52333  -0.49090
 Alpha  occ. eigenvalues --   -0.49063  -0.48936  -0.48914  -0.45107  -0.44911
 Alpha  occ. eigenvalues --   -0.38237  -0.37917  -0.36127  -0.35833
 Alpha virt. eigenvalues --    0.04392   0.05273   0.10041   0.12124   0.15906
 Alpha virt. eigenvalues --    0.16749   0.19847   0.22114   0.26313   0.26378
 Alpha virt. eigenvalues --    0.28323   0.29112   0.30381   0.30832   0.31898
 Alpha virt. eigenvalues --    0.33489   0.34040   0.34165   0.36588   0.36630
 Alpha virt. eigenvalues --    0.42740   0.43359   0.43607   0.44544   0.45967
 Alpha virt. eigenvalues --    0.46231   0.48908   0.49161   0.50522   0.51157
 Alpha virt. eigenvalues --    0.56279   0.56661   0.60507   0.66744   0.67351
 Alpha virt. eigenvalues --    0.68196   0.69075   0.69313   0.70058   0.71218
 Alpha virt. eigenvalues --    0.72928   0.76275   0.77244   0.78220   0.78274
 Alpha virt. eigenvalues --    0.78890   0.79393   0.79865   0.80160   0.80448
 Alpha virt. eigenvalues --    0.80919   0.81770   0.83082   0.85218   0.85850
 Alpha virt. eigenvalues --    0.86072   0.87474   0.91507   0.92550   0.93421
 Alpha virt. eigenvalues --    0.94684   0.96745   0.98354   0.99794   1.00437
 Alpha virt. eigenvalues --    1.01642   1.02162   1.03459   1.04301   1.05817
 Alpha virt. eigenvalues --    1.06451   1.06733   1.07767   1.08049   1.08394
 Alpha virt. eigenvalues --    1.08631   1.09006   1.09178   1.13080   1.15639
 Alpha virt. eigenvalues --    1.16040   1.16200   1.18007   1.18848   1.19632
 Alpha virt. eigenvalues --    1.20830   1.22995   1.23460   1.23556   1.24470
 Alpha virt. eigenvalues --    1.27404   1.27579   1.27991   1.28397   1.29313
 Alpha virt. eigenvalues --    1.30554   1.31815   1.33603   1.34408   1.35397
 Alpha virt. eigenvalues --    1.40424   1.42730   1.46216   1.46772   1.47025
 Alpha virt. eigenvalues --    1.47204   1.52284   1.52388   1.52556   1.54372
 Alpha virt. eigenvalues --    1.59521   1.60827   1.65099   1.65300   1.66288
 Alpha virt. eigenvalues --    1.66465   1.66996   1.67518   1.68255   1.68765
 Alpha virt. eigenvalues --    1.72376   1.72473   1.73039   1.73158   1.73584
 Alpha virt. eigenvalues --    1.74399   1.75346   1.75438   1.96592   1.97200
 Alpha virt. eigenvalues --    1.99162   1.99218   1.99578   2.00023   2.03909
 Alpha virt. eigenvalues --    2.04382   2.04456   2.05352   2.09777   2.09949
 Alpha virt. eigenvalues --    2.11105   2.12602   2.12633   2.15111   2.21096
 Alpha virt. eigenvalues --    2.21545   2.21666   2.21910   2.24021   2.25255
 Alpha virt. eigenvalues --    2.26963   2.27649   2.32500   2.33400   2.35301
 Alpha virt. eigenvalues --    2.36965   2.37018   2.38434   2.41835   2.43036
 Alpha virt. eigenvalues --    2.43134   2.43894   2.44366   2.45462   2.45799
 Alpha virt. eigenvalues --    2.46524   2.47451   2.48449   2.57911   2.58314
 Alpha virt. eigenvalues --    2.58404   2.58434   2.59769   2.59982   2.69439
 Alpha virt. eigenvalues --    2.71454   2.80928   2.82123   2.83306   2.83428
 Alpha virt. eigenvalues --    2.90910   2.91668   2.91734   2.91779   2.92649
 Alpha virt. eigenvalues --    2.93654   2.99663   2.99833   3.04220   3.04475
 Alpha virt. eigenvalues --    3.04570   3.04935   3.06614   3.07117   3.10702
 Alpha virt. eigenvalues --    3.11402   3.23090   3.23485   3.24409   3.24643
 Alpha virt. eigenvalues --    3.27205   3.27622   3.42645   3.43242   3.52693
 Alpha virt. eigenvalues --    3.52767   3.76664   3.77032   4.12286   4.13584
 Alpha virt. eigenvalues --    4.27980   4.28973   4.37541   4.37765   4.44723
 Alpha virt. eigenvalues --    4.48923   4.49821   4.51983   4.55158   4.58520
 Alpha virt. eigenvalues --    4.70267   4.75440   4.76960   4.78374   5.08859
 Alpha virt. eigenvalues --    5.10090
          Condensed to atoms (all electrons):
               1          2          3          4          5          6
     1  C    4.876345   0.542399  -0.045748  -0.028915  -0.044558   0.543028
     2  C    0.542399   4.930942   0.523248  -0.039906  -0.030524  -0.043524
     3  C   -0.045748   0.523248   4.919846   0.546882  -0.052726  -0.030373
     4  C   -0.028915  -0.039906   0.546882   4.821229   0.549436  -0.038678
     5  C   -0.044558  -0.030524  -0.052726   0.549436   4.914417   0.521317
     6  C    0.543028  -0.043524  -0.030373  -0.038678   0.521317   4.928936
     7  H    0.381424  -0.027641   0.002186   0.000220   0.002187  -0.028732
     8  H   -0.027696   0.382369  -0.026801   0.001539   0.000213   0.002323
     9  H    0.001921  -0.023676   0.368250  -0.019643   0.002571  -0.000053
    10  H    0.001962  -0.000072   0.002632  -0.019269   0.368565  -0.025204
    11  H   -0.028034   0.002368   0.000199   0.001608  -0.028450   0.382886
    12  N    0.000004   0.001567  -0.044263   0.243846  -0.045035   0.001537
    13  O   -0.000004  -0.000028   0.003719  -0.088322   0.003837   0.000787
    14  O   -0.000004   0.000767   0.003913  -0.087622   0.003714  -0.000027
    15  C   -0.000051  -0.000005   0.000021  -0.000118  -0.001267  -0.001449
    16  C   -0.000097  -0.000024  -0.000007  -0.000006  -0.000613  -0.000600
    17  C    0.000217   0.000048   0.000023   0.000082  -0.000279   0.000361
    18  C    0.000005  -0.000046   0.000009   0.000146  -0.000007  -0.000076
    19  C    0.000013  -0.000009   0.000008   0.000377   0.000582  -0.000148
    20  C    0.000000  -0.000005   0.000020  -0.000334  -0.000986  -0.000567
    21  H   -0.000000   0.000000   0.000000   0.000002  -0.000027  -0.000021
    22  H    0.000020   0.000001  -0.000000  -0.000000   0.000001   0.000015
    23  H    0.000016   0.000010   0.000002   0.000000  -0.000001   0.000001
    24  H    0.000000   0.000000   0.000002   0.000008   0.000000  -0.000000
    25  H    0.000001  -0.000000  -0.000000  -0.000027  -0.000077  -0.000004
    26  N   -0.000000  -0.000004  -0.000012  -0.000013  -0.000002   0.000000
    27  O   -0.000000  -0.000000   0.000001  -0.000001  -0.000000   0.000000
    28  O   -0.000000   0.000001  -0.000000  -0.000000   0.000000   0.000000
               7          8          9         10         11         12
     1  C    0.381424  -0.027696   0.001921   0.001962  -0.028034   0.000004
     2  C   -0.027641   0.382369  -0.023676  -0.000072   0.002368   0.001567
     3  C    0.002186  -0.026801   0.368250   0.002632   0.000199  -0.044263
     4  C    0.000220   0.001539  -0.019643  -0.019269   0.001608   0.243846
     5  C    0.002187   0.000213   0.002571   0.368565  -0.028450  -0.045035
     6  C   -0.028732   0.002323  -0.000053  -0.025204   0.382886   0.001537
     7  H    0.449436  -0.001189  -0.000071  -0.000072  -0.001239   0.000002
     8  H   -0.001189   0.444070  -0.001086   0.000007  -0.000095  -0.000049
     9  H   -0.000071  -0.001086   0.389469  -0.000076   0.000007  -0.005362
    10  H   -0.000072   0.000007  -0.000076   0.400456  -0.001199  -0.005493
    11  H   -0.001239  -0.000095   0.000007  -0.001199   0.457215  -0.000050
    12  N    0.000002  -0.000049  -0.005362  -0.005493  -0.000050   5.736162
    13  O    0.000000   0.000000   0.000045   0.009102  -0.000001   0.313587
    14  O    0.000000  -0.000001   0.008842   0.000047   0.000000   0.315736
    15  C   -0.000001  -0.000000   0.000000   0.000587   0.000324  -0.000008
    16  C   -0.000005  -0.000000  -0.000000  -0.000007   0.000301   0.000002
    17  C   -0.000005   0.000000  -0.000001  -0.000022   0.000022   0.000001
    18  C    0.000000  -0.000000   0.000002  -0.000017  -0.000009  -0.000019
    19  C    0.000000  -0.000000   0.000004   0.000094  -0.000006  -0.000064
    20  C    0.000000  -0.000000   0.000001   0.000992   0.000003  -0.000052
    21  H   -0.000000  -0.000000   0.000000   0.000064   0.000108  -0.000000
    22  H    0.000004  -0.000000  -0.000000  -0.000002   0.000099  -0.000000
    23  H    0.000001   0.000000   0.000000  -0.000000  -0.000000   0.000000
    24  H    0.000000  -0.000000   0.000000  -0.000000  -0.000000   0.000015
    25  H    0.000000  -0.000000   0.000000   0.000100  -0.000002  -0.000004
    26  N   -0.000000   0.000000  -0.000000  -0.000000  -0.000000   0.000000
    27  O    0.000000  -0.000000   0.000000   0.000000   0.000000   0.000000
    28  O   -0.000000   0.000000  -0.000000   0.000000   0.000000   0.000000
              13         14         15         16         17         18
     1  C   -0.000004  -0.000004  -0.000051  -0.000097   0.000217   0.000005
     2  C   -0.000028   0.000767  -0.000005  -0.000024   0.000048  -0.000046
     3  C    0.003719   0.003913   0.000021  -0.000007   0.000023   0.000009
     4  C   -0.088322  -0.087622  -0.000118  -0.000006   0.000082   0.000146
     5  C    0.003837   0.003714  -0.001267  -0.000613  -0.000279  -0.000007
     6  C    0.000787  -0.000027  -0.001449  -0.000600   0.000361  -0.000076
     7  H    0.000000   0.000000  -0.000001  -0.000005  -0.000005   0.000000
     8  H    0.000000  -0.000001  -0.000000  -0.000000   0.000000  -0.000000
     9  H    0.000045   0.008842   0.000000  -0.000000  -0.000001   0.000002
    10  H    0.009102   0.000047   0.000587  -0.000007  -0.000022  -0.000017
    11  H   -0.000001   0.000000   0.000324   0.000301   0.000022  -0.000009
    12  N    0.313587   0.315736  -0.000008   0.000002   0.000001  -0.000019
    13  O    8.312181  -0.087537  -0.000012   0.000000  -0.000000   0.000002
    14  O   -0.087537   8.297327   0.000000  -0.000000  -0.000000  -0.000001
    15  C   -0.000012   0.000000   4.886791   0.541244  -0.045331  -0.028692
    16  C    0.000000  -0.000000   0.541244   4.930539   0.523336  -0.039860
    17  C   -0.000000  -0.000000  -0.045331   0.523336   4.915790   0.548735
    18  C    0.000002  -0.000001  -0.028692  -0.039860   0.548735   4.821775
    19  C   -0.000043  -0.000001  -0.046305  -0.029963  -0.052550   0.546594
    20  C    0.000109  -0.000002   0.541509  -0.043936  -0.030048  -0.040143
    21  H   -0.000001   0.000000   0.381684  -0.028998   0.002169   0.000224
    22  H    0.000000   0.000000  -0.028638   0.382874  -0.027472   0.001572
    23  H   -0.000000   0.000000   0.001943  -0.024574   0.368611  -0.019390
    24  H    0.000002   0.000001   0.001913  -0.000051   0.002505  -0.020032
    25  H    0.000224  -0.000000  -0.028181   0.002295   0.000198   0.001541
    26  N    0.000000   0.000000   0.000007   0.001518  -0.044784   0.243518
    27  O    0.000000  -0.000000  -0.000004  -0.000028   0.003715  -0.087662
    28  O   -0.000000   0.000000  -0.000004   0.000782   0.004188  -0.088242
              19         20         21         22         23         24
     1  C    0.000013   0.000000  -0.000000   0.000020   0.000016   0.000000
     2  C   -0.000009  -0.000005   0.000000   0.000001   0.000010   0.000000
     3  C    0.000008   0.000020   0.000000  -0.000000   0.000002   0.000002
     4  C    0.000377  -0.000334   0.000002  -0.000000   0.000000   0.000008
     5  C    0.000582  -0.000986  -0.000027   0.000001  -0.000001   0.000000
     6  C   -0.000148  -0.000567  -0.000021   0.000015   0.000001  -0.000000
     7  H    0.000000   0.000000  -0.000000   0.000004   0.000001   0.000000
     8  H   -0.000000  -0.000000  -0.000000  -0.000000   0.000000  -0.000000
     9  H    0.000004   0.000001   0.000000  -0.000000   0.000000   0.000000
    10  H    0.000094   0.000992   0.000064  -0.000002  -0.000000  -0.000000
    11  H   -0.000006   0.000003   0.000108   0.000099  -0.000000  -0.000000
    12  N   -0.000064  -0.000052  -0.000000  -0.000000   0.000000   0.000015
    13  O   -0.000043   0.000109  -0.000001   0.000000  -0.000000   0.000002
    14  O   -0.000001  -0.000002   0.000000   0.000000   0.000000   0.000001
    15  C   -0.046305   0.541509   0.381684  -0.028638   0.001943   0.001913
    16  C   -0.029963  -0.043936  -0.028998   0.382874  -0.024574  -0.000051
    17  C   -0.052550  -0.030048   0.002169  -0.027472   0.368611   0.002505
    18  C    0.546594  -0.040143   0.000224   0.001572  -0.019390  -0.020032
    19  C    4.921505   0.522508   0.002181   0.000192   0.002575   0.368183
    20  C    0.522508   4.934571  -0.028060   0.002340  -0.000069  -0.023209
    21  H    0.002181  -0.028060   0.452266  -0.001218  -0.000072  -0.000071
    22  H    0.000192   0.002340  -0.001218   0.454139  -0.001135   0.000007
    23  H    0.002575  -0.000069  -0.000072  -0.001135   0.395060  -0.000074
    24  H    0.368183  -0.023209  -0.000071   0.000007  -0.000074   0.385744
    25  H   -0.025606   0.381927  -0.001153  -0.000092   0.000007  -0.001055
    26  N   -0.044414   0.001554   0.000002  -0.000050  -0.005410  -0.005249
    27  O    0.004003   0.000771   0.000000   0.000000   0.000049   0.008844
    28  O    0.003694  -0.000029   0.000000  -0.000001   0.009169   0.000047
              25         26         27         28
     1  C    0.000001  -0.000000  -0.000000  -0.000000
     2  C   -0.000000  -0.000004  -0.000000   0.000001
     3  C   -0.000000  -0.000012   0.000001  -0.000000
     4  C   -0.000027  -0.000013  -0.000001  -0.000000
     5  C   -0.000077  -0.000002  -0.000000   0.000000
     6  C   -0.000004   0.000000   0.000000   0.000000
     7  H    0.000000  -0.000000   0.000000  -0.000000
     8  H   -0.000000   0.000000  -0.000000   0.000000
     9  H    0.000000  -0.000000   0.000000  -0.000000
    10  H    0.000100  -0.000000   0.000000   0.000000
    11  H   -0.000002  -0.000000   0.000000   0.000000
    12  N   -0.000004   0.000000   0.000000   0.000000
    13  O    0.000224   0.000000   0.000000  -0.000000
    14  O   -0.000000   0.000000  -0.000000   0.000000
    15  C   -0.028181   0.000007  -0.000004  -0.000004
    16  C    0.002295   0.001518  -0.000028   0.000782
    17  C    0.000198  -0.044784   0.003715   0.004188
    18  C    0.001541   0.243518  -0.087662  -0.088242
    19  C   -0.025606  -0.044414   0.004003   0.003694
    20  C    0.381927   0.001554   0.000771  -0.000029
    21  H   -0.001153   0.000002   0.000000   0.000000
    22  H   -0.000092  -0.000050   0.000000  -0.000001
    23  H    0.000007  -0.005410   0.000049   0.009169
    24  H   -0.001055  -0.005249   0.008844   0.000047
    25  H    0.437360  -0.000048  -0.000001   0.000000
    26  N   -0.000048   5.736751   0.315019   0.314159
    27  O   -0.000001   0.315019   8.298750  -0.087619
    28  O    0.000000   0.314159  -0.087619   8.306878
 Mulliken charges:
               1
     1  C   -0.172247
     2  C   -0.218256
     3  C   -0.171031
     4  C    0.157478
     5  C   -0.162287
     6  C   -0.211737
     7  H    0.223495
     8  H    0.226396
     9  H    0.278856
    10  H    0.266826
    11  H    0.213944
    12  N    0.487939
    13  O   -0.467648
    14  O   -0.455151
    15  C   -0.175957
    16  C   -0.214121
    17  C   -0.169508
    18  C    0.160073
    19  C   -0.173407
    20  C   -0.218863
    21  H    0.220921
    22  H    0.217344
    23  H    0.273281
    24  H    0.282469
    25  H    0.232596
    26  N    0.487456
    27  O   -0.455838
    28  O   -0.463024
 Sum of Mulliken charges =  -0.00000
 Mulliken charges with hydrogens summed into heavy atoms:
               1
     1  C    0.051248
     2  C    0.008140
     3  C    0.107825
     4  C    0.157478
     5  C    0.104539
     6  C    0.002207
    12  N    0.487939
    13  O   -0.467648
    14  O   -0.455151
    15  C    0.044964
    16  C    0.003223
    17  C    0.103774
    18  C    0.160073
    19  C    0.109062
    20  C    0.013733
    26  N    0.487456
    27  O   -0.455838
    28  O   -0.463024
 Electronic spatial extent (au):  <R**2>=           4343.2705
 Charge=              0.0000 electrons
 Dipole moment (field-independent basis, Debye):
    X=              0.7685    Y=              7.5102    Z=              0.6506  Tot=              7.5774
 Quadrupole moment (field-independent basis, Debye-Ang):
   XX=           -120.2625   YY=           -104.6073   ZZ=            -97.6656
   XY=              0.4610   XZ=            -12.1466   YZ=             -0.5755
 Traceless Quadrupole moment (field-independent basis, Debye-Ang):
   XX=            -12.7507   YY=              2.9045   ZZ=              9.8462
   XY=              0.4610   XZ=            -12.1466   YZ=             -0.5755
 Octapole moment (field-independent basis, Debye-Ang**2):
  XXX=              8.3302  YYY=             40.1239  ZZZ=             -6.9475  XYY=             -9.1497
  XXY=             31.2095  XXZ=              5.6776  XZZ=             15.0485  YZZ=              8.1557
  YYZ=              1.2767  XYZ=             22.2665
 Hexadecapole moment (field-independent basis, Debye-Ang**3):
 XXXX=          -3154.6275 YYYY=          -1434.2717 ZZZZ=          -1108.2468 XXXY=            -34.5508
 XXXZ=            -19.4310 YYYX=              0.8273 YYYZ=            -10.0099 ZZZX=            -19.1775
 ZZZY=              1.8590 XXYY=           -835.3038 XXZZ=           -770.2024 YYZZ=           -409.5210
 XXYZ=            -12.7518 YYXZ=             -9.8730 ZZXY=              7.6130
 N-N= 1.254988050368D+03 E-N=-4.542823597135D+03  KE= 8.657102427194D+02
 Leave Link  601 at Thu May  6 21:14:45 2021, MaxMem=   524288000 cpu:               0.3 elap:               0.3
 (Enter /opt/gaussian/g16_legacy/l9999.exe)
 1\1\GINC-TRUENO93\SP\RMP2-FC\6-31G(d)\C12H10N2O4\JRAMOS\06-May-2021\0\
 \#p 6-31g* mp2\\Input file generated by CHIRIPA (05-May-2021 14:57:24)
 \\0,1\C,0,1.914143,0.,0.\C,0,1.214143,1.211,0.\C,0,-0.183857,1.223,0.\
 C,0,-0.852857,0.,0.\C,0,-0.183857,-1.223,0.\C,0,1.214143,-1.211,0.\H,0
 ,3.000143,0.,0.\H,0,1.755143,2.153,0.\H,0,-0.750857,2.146,0.\H,0,-0.75
 0857,-2.146,0.\H,0,1.755143,-2.153,0.\N,0,-2.332857,0.,0.\O,0,-2.89885
 7,-1.091,0.\O,0,-2.898857,1.091,0.\C,0,0.356476,-2.880386,3.034981\C,0
 ,1.459392,-2.114536,3.426862\C,0,1.278519,-0.880952,4.0594\C,0,-0.0250
 43,-0.441728,4.285454\C,0,-1.144118,-1.181732,3.906834\C,0,-0.939475,-
 2.412365,3.275794\H,0,0.506215,-3.837517,2.544192\H,0,2.466988,-2.4755
 03,3.241128\H,0,2.114524,-0.267734,4.373211\H,0,-2.136481,-0.795515,4.
 105504\H,0,-1.797883,-3.005004,2.972547\N,0,-0.229107,0.86265,4.954301
 \O,0,-1.387727,1.227328,5.14204\O,0,0.773431,1.495644,5.278139\\Versio
 n=EM64L-G16RevA.03\State=1-A\HF=-868.3353583\MP2=-870.9413054\RMSD=3.6
 39e-09\PG=C01 [X(C12H10N2O4)]\\@


 THERE ARE PEOPLE SO ADDICTED TO EXAGERATING THEY
 CAN'T TELL THE TRUTH WITHOUT LYING. -- FORTUNE COOKIE
 Job cpu time:       0 days  0 hours  7 minutes 18.1 seconds.
 Elapsed time:       0 days  0 hours  3 minutes 41.0 seconds.
 File lengths (MBytes):  RWF=     50 Int=      0 D2E=      0 Chk=      7 Scr=      1
 Normal termination of Gaussian 16 at Thu May  6 21:14:45 2021.
