 Entering Gaussian System, Link 0=/opt/gaussian/g16_legacy/g16
 Input=gaussian_01729_1_1.com
 Output=gaussian_01729_1_1.log
 Initial command:
 /opt/gaussian/g16_legacy/l1.exe "/scratch-local/jramos/2590047/Gau-29547.inp" -scrdir="/scratch-local/jramos/2590047/"
 Entering Link 1 = /opt/gaussian/g16_legacy/l1.exe PID=     29548.
  
 Copyright (c) 1988,1990,1992,1993,1995,1998,2003,2009,2016,
            Gaussian, Inc.  All Rights Reserved.
  
 This is part of the Gaussian(R) 16 program.  It is based on
 the Gaussian(R) 09 system (copyright 2009, Gaussian, Inc.),
 the Gaussian(R) 03 system (copyright 2003, Gaussian, Inc.),
 the Gaussian(R) 98 system (copyright 1998, Gaussian, Inc.),
 the Gaussian(R) 94 system (copyright 1995, Gaussian, Inc.),
 the Gaussian 92(TM) system (copyright 1992, Gaussian, Inc.),
 the Gaussian 90(TM) system (copyright 1990, Gaussian, Inc.),
 the Gaussian 88(TM) system (copyright 1988, Gaussian, Inc.),
 the Gaussian 86(TM) system (copyright 1986, Carnegie Mellon
 University), and the Gaussian 82(TM) system (copyright 1983,
 Carnegie Mellon University). Gaussian is a federally registered
 trademark of Gaussian, Inc.
  
 This software contains proprietary and confidential information,
 including trade secrets, belonging to Gaussian, Inc.
  
 This software is provided under written license and may be
 used, copied, transmitted, or stored only in accord with that
 written license.
  
 The following legend is applicable only to US Government
 contracts under FAR:
  
                    RESTRICTED RIGHTS LEGEND
  
 Use, reproduction and disclosure by the US Government is
 subject to restrictions as set forth in subparagraphs (a)
 and (c) of the Commercial Computer Software - Restricted
 Rights clause in FAR 52.227-19.
  
 Gaussian, Inc.
 340 Quinnipiac St., Bldg. 40, Wallingford CT 06492
  
  
 ---------------------------------------------------------------
 Warning -- This program may not be used in any manner that
 competes with the business of Gaussian, Inc. or will provide
 assistance to any competitor of Gaussian, Inc.  The licensee
 of this program is prohibited from giving any competitor of
 Gaussian, Inc. access to this program.  By using this program,
 the user acknowledges that Gaussian, Inc. is engaged in the
 business of creating and licensing software in the field of
 computational chemistry and represents and warrants to the
 licensee that it is not a competitor of Gaussian, Inc. and that
 it will not use this program in any manner prohibited above.
 ---------------------------------------------------------------
  

 Cite this work as:
 Gaussian 16, Revision A.03,
 M. J. Frisch, G. W. Trucks, H. B. Schlegel, G. E. Scuseria, 
 M. A. Robb, J. R. Cheeseman, G. Scalmani, V. Barone, 
 G. A. Petersson, H. Nakatsuji, X. Li, M. Caricato, A. V. Marenich, 
 J. Bloino, B. G. Janesko, R. Gomperts, B. Mennucci, H. P. Hratchian, 
 J. V. Ortiz, A. F. Izmaylov, J. L. Sonnenberg, D. Williams-Young, 
 F. Ding, F. Lipparini, F. Egidi, J. Goings, B. Peng, A. Petrone, 
 T. Henderson, D. Ranasinghe, V. G. Zakrzewski, J. Gao, N. Rega, 
 G. Zheng, W. Liang, M. Hada, M. Ehara, K. Toyota, R. Fukuda, 
 J. Hasegawa, M. Ishida, T. Nakajima, Y. Honda, O. Kitao, H. Nakai, 
 T. Vreven, K. Throssell, J. A. Montgomery, Jr., J. E. Peralta, 
 F. Ogliaro, M. J. Bearpark, J. J. Heyd, E. N. Brothers, K. N. Kudin, 
 V. N. Staroverov, T. A. Keith, R. Kobayashi, J. Normand, 
 K. Raghavachari, A. P. Rendell, J. C. Burant, S. S. Iyengar, 
 J. Tomasi, M. Cossi, J. M. Millam, M. Klene, C. Adamo, R. Cammi, 
 J. W. Ochterski, R. L. Martin, K. Morokuma, O. Farkas, 
 J. B. Foresman, and D. J. Fox, Gaussian, Inc., Wallingford CT, 2016.
 
 ******************************************
 Gaussian 16:  EM64L-G16RevA.03 25-Dec-2016
                 6-May-2021 
 ******************************************
 %chk=gaussian_01729_1_1.chk
 %nproc=2
 Will use up to    2 processors via shared memory.
 %mem=4000Mb
 -------------
 #p 6-31g* mp2
 -------------
 1/38=1,172=1/1;
 2/12=2,17=6,18=5,40=1/2;
 3/5=1,6=6,7=1,11=9,25=1,30=1/1,2,3;
 4//1;
 5/5=2,38=5/2;
 8/10=2/1;
 9/16=-3/6;
 6/7=2,8=2,9=2,10=2/1;
 99/5=1,9=1/99;
 Leave Link    1 at Thu May  6 00:34:36 2021, MaxMem=   524288000 cpu:               0.1 elap:               0.1
 (Enter /opt/gaussian/g16_legacy/l101.exe)
 ------------------------------------------------------
 Input file generated by CHIRIPA (05-May-2021 14:51:10)
 ------------------------------------------------------
 Symbolic Z-matrix:
 Charge =  0 Multiplicity = 1
 C                    -0.666    -0.374     0. 
 C                    -1.882     0.553     0. 
 C                    -3.207    -0.21      0. 
 H                    -0.713    -1.03     -0.88 
 H                    -0.713    -1.029     0.881 
 H                    -1.832     1.207    -0.88 
 H                    -1.832     1.207     0.88 
 H                    -3.283    -0.85      0.885 
 H                    -3.283    -0.85     -0.885 
 H                    -4.063     0.472     0. 
 C                     0.666     0.374     0. 
 C                     1.882    -0.553     0. 
 C                     3.207     0.21      0. 
 H                     0.713     1.029    -0.881 
 H                     0.713     1.03      0.88 
 H                     1.832    -1.207    -0.88 
 H                     1.832    -1.207     0.88 
 H                     3.283     0.85      0.885 
 H                     3.283     0.85     -0.885 
 H                     4.063    -0.472     0. 
 C                    -1.93624   2.21165  -4.11374 
 C                    -2.8443    2.17169  -5.34329 
 C                    -3.91574   1.08475  -5.25182 
 H                    -1.45636   1.2314   -3.98819 
 H                    -2.55086   2.37582  -3.21781 
 H                    -2.228     2.00903  -6.23679 
 H                    -3.32193   3.15222  -5.46604 
 H                    -4.55483   1.24638  -4.37773 
 H                    -3.45469   0.0967   -5.15286 
 H                    -4.55361   1.07394  -6.14113 
 C                    -0.86002   3.29314  -4.19033 
 C                     0.04804   3.3331   -2.96077 
 C                     1.11948   4.42005  -3.05224 
 H                    -0.2454    3.12897  -5.08625 
 H                    -1.3399    4.27339  -4.31588 
 H                     0.52567   2.35258  -2.83802 
 H                    -0.56826   3.49576  -2.06728 
 H                     0.65843   5.40809  -3.15121 
 H                     1.75858   4.25842  -3.92633 
 H                     1.75735   4.43085  -2.16293 
 
 ITRead=  0  0  0  0  0  0  0  0  0  0  0  0  0  0  0  0  0  0  0  0
 ITRead=  0  0  0  0  0  0  0  0  0  0  0  0  0  0  0  0  0  0  0  0
 MicOpt= -1 -1 -1 -1 -1 -1 -1 -1 -1 -1 -1 -1 -1 -1 -1 -1 -1 -1 -1 -1
 MicOpt= -1 -1 -1 -1 -1 -1 -1 -1 -1 -1 -1 -1 -1 -1 -1 -1 -1 -1 -1 -1
 NAtoms=     40 NQM=       40 NQMF=       0 NMMI=      0 NMMIF=      0
                NMic=       0 NMicF=      0.
                    Isotopes and Nuclear Properties:
 (Nuclear quadrupole moments (NQMom) in fm**2, nuclear magnetic moments (NMagM)
  in nuclear magnetons)

  Atom         1           2           3           4           5           6           7           8           9          10
 IAtWgt=          12          12          12           1           1           1           1           1           1           1
 AtmWgt=  12.0000000  12.0000000  12.0000000   1.0078250   1.0078250   1.0078250   1.0078250   1.0078250   1.0078250   1.0078250
 NucSpn=           0           0           0           1           1           1           1           1           1           1
 AtZEff=  -0.0000000  -0.0000000  -0.0000000  -0.0000000  -0.0000000  -0.0000000  -0.0000000  -0.0000000  -0.0000000  -0.0000000
 NQMom=    0.0000000   0.0000000   0.0000000   0.0000000   0.0000000   0.0000000   0.0000000   0.0000000   0.0000000   0.0000000
 NMagM=    0.0000000   0.0000000   0.0000000   2.7928460   2.7928460   2.7928460   2.7928460   2.7928460   2.7928460   2.7928460
 AtZNuc=   6.0000000   6.0000000   6.0000000   1.0000000   1.0000000   1.0000000   1.0000000   1.0000000   1.0000000   1.0000000

  Atom        11          12          13          14          15          16          17          18          19          20
 IAtWgt=          12          12          12           1           1           1           1           1           1           1
 AtmWgt=  12.0000000  12.0000000  12.0000000   1.0078250   1.0078250   1.0078250   1.0078250   1.0078250   1.0078250   1.0078250
 NucSpn=           0           0           0           1           1           1           1           1           1           1
 AtZEff=  -0.0000000  -0.0000000  -0.0000000  -0.0000000  -0.0000000  -0.0000000  -0.0000000  -0.0000000  -0.0000000  -0.0000000
 NQMom=    0.0000000   0.0000000   0.0000000   0.0000000   0.0000000   0.0000000   0.0000000   0.0000000   0.0000000   0.0000000
 NMagM=    0.0000000   0.0000000   0.0000000   2.7928460   2.7928460   2.7928460   2.7928460   2.7928460   2.7928460   2.7928460
 AtZNuc=   6.0000000   6.0000000   6.0000000   1.0000000   1.0000000   1.0000000   1.0000000   1.0000000   1.0000000   1.0000000

  Atom        21          22          23          24          25          26          27          28          29          30
 IAtWgt=          12          12          12           1           1           1           1           1           1           1
 AtmWgt=  12.0000000  12.0000000  12.0000000   1.0078250   1.0078250   1.0078250   1.0078250   1.0078250   1.0078250   1.0078250
 NucSpn=           0           0           0           1           1           1           1           1           1           1
 AtZEff=  -0.0000000  -0.0000000  -0.0000000  -0.0000000  -0.0000000  -0.0000000  -0.0000000  -0.0000000  -0.0000000  -0.0000000
 NQMom=    0.0000000   0.0000000   0.0000000   0.0000000   0.0000000   0.0000000   0.0000000   0.0000000   0.0000000   0.0000000
 NMagM=    0.0000000   0.0000000   0.0000000   2.7928460   2.7928460   2.7928460   2.7928460   2.7928460   2.7928460   2.7928460
 AtZNuc=   6.0000000   6.0000000   6.0000000   1.0000000   1.0000000   1.0000000   1.0000000   1.0000000   1.0000000   1.0000000

  Atom        31          32          33          34          35          36          37          38          39          40
 IAtWgt=          12          12          12           1           1           1           1           1           1           1
 AtmWgt=  12.0000000  12.0000000  12.0000000   1.0078250   1.0078250   1.0078250   1.0078250   1.0078250   1.0078250   1.0078250
 NucSpn=           0           0           0           1           1           1           1           1           1           1
 AtZEff=  -0.0000000  -0.0000000  -0.0000000  -0.0000000  -0.0000000  -0.0000000  -0.0000000  -0.0000000  -0.0000000  -0.0000000
 NQMom=    0.0000000   0.0000000   0.0000000   0.0000000   0.0000000   0.0000000   0.0000000   0.0000000   0.0000000   0.0000000
 NMagM=    0.0000000   0.0000000   0.0000000   2.7928460   2.7928460   2.7928460   2.7928460   2.7928460   2.7928460   2.7928460
 AtZNuc=   6.0000000   6.0000000   6.0000000   1.0000000   1.0000000   1.0000000   1.0000000   1.0000000   1.0000000   1.0000000
 Leave Link  101 at Thu May  6 00:34:37 2021, MaxMem=   524288000 cpu:               0.4 elap:               0.3
 (Enter /opt/gaussian/g16_legacy/l202.exe)
                          Input orientation:                          
 ---------------------------------------------------------------------
 Center     Atomic      Atomic             Coordinates (Angstroms)
 Number     Number       Type             X           Y           Z
 ---------------------------------------------------------------------
      1          6           0       -0.666000   -0.374000    0.000000
      2          6           0       -1.882000    0.553000    0.000000
      3          6           0       -3.207000   -0.210000    0.000000
      4          1           0       -0.713000   -1.030000   -0.880000
      5          1           0       -0.713000   -1.029000    0.881000
      6          1           0       -1.832000    1.207000   -0.880000
      7          1           0       -1.832000    1.207000    0.880000
      8          1           0       -3.283000   -0.850000    0.885000
      9          1           0       -3.283000   -0.850000   -0.885000
     10          1           0       -4.063000    0.472000    0.000000
     11          6           0        0.666000    0.374000    0.000000
     12          6           0        1.882000   -0.553000    0.000000
     13          6           0        3.207000    0.210000    0.000000
     14          1           0        0.713000    1.029000   -0.881000
     15          1           0        0.713000    1.030000    0.880000
     16          1           0        1.832000   -1.207000   -0.880000
     17          1           0        1.832000   -1.207000    0.880000
     18          1           0        3.283000    0.850000    0.885000
     19          1           0        3.283000    0.850000   -0.885000
     20          1           0        4.063000   -0.472000    0.000000
     21          6           0       -1.936238    2.211654   -4.113736
     22          6           0       -2.844301    2.171694   -5.343293
     23          6           0       -3.915739    1.084750   -5.251823
     24          1           0       -1.456358    1.231400   -3.988188
     25          1           0       -2.550863    2.375822   -3.217812
     26          1           0       -2.227999    2.009032   -6.236785
     27          1           0       -3.321928    3.152216   -5.466039
     28          1           0       -4.554834    1.246380   -4.377733
     29          1           0       -3.454689    0.096701   -5.152858
     30          1           0       -4.553606    1.073945   -6.141131
     31          6           0       -0.860020    3.293142   -4.190327
     32          6           0        0.048043    3.333101   -2.960770
     33          6           0        1.119480    4.420046   -3.052240
     34          1           0       -0.245396    3.128974   -5.086252
     35          1           0       -1.339901    4.273395   -4.315875
     36          1           0        0.525670    2.352580   -2.838024
     37          1           0       -0.568260    3.495764   -2.067278
     38          1           0        0.658430    5.408094   -3.151206
     39          1           0        1.758575    4.258415   -3.926331
     40          1           0        1.757348    4.430850   -2.162932
 ---------------------------------------------------------------------
                    Distance matrix (angstroms):
                    1          2          3          4          5
     1  C    0.000000
     2  C    1.529047   0.000000
     3  C    2.546287   1.528985   0.000000
     4  H    1.098610   2.155655   2.768905   0.000000
     5  H    1.098815   2.155330   2.768927   1.761000   0.000000
     6  H    2.152561   1.097550   2.161692   2.501266   3.058264
     7  H    2.152561   1.097550   2.161692   3.058420   2.500372
     8  H    2.803300   2.171275   1.094806   3.122903   2.576229
     9  H    2.803300   2.171275   1.094806   2.576301   3.123411
    10  H    3.500761   2.182504   1.094468   3.775302   3.775137
    11  C    1.527654   2.554280   3.916782   2.155750   2.155507
    12  C    2.554280   3.923128   5.100546   2.781358   2.781504
    13  C    3.916782   5.100546   6.427736   4.204569   4.204484
    14  H    2.155507   2.781504   4.204484   2.504587   3.061615
    15  H    2.155750   2.781358   4.204569   3.061809   2.504587
    16  H    2.776381   4.203070   5.211519   2.551148   3.099973
    17  H    2.776381   4.203070   5.211519   3.099347   2.551217
    18  H    4.228002   5.248682   6.635279   4.755801   4.415730
    19  H    4.228002   5.248682   6.635279   4.416157   4.755777
    20  H    4.730015   6.032715   7.274720   4.888347   4.888413
    21  C    5.022144   4.435865   4.939845   4.739376   6.078284
    22  C    6.306848   5.665419   5.861297   5.891882   7.316332
    23  C    6.345896   5.656898   5.455303   5.817434   7.234431
    24  H    4.371226   4.067805   4.587813   3.915015   5.419500
    25  H    4.633416   3.758241   4.179869   4.521364   5.636560
    26  H    6.856834   6.413831   6.691788   6.342404   7.885919
    27  H    7.026075   6.221487   6.418355   6.732696   8.035793
    28  H    6.075624   5.175844   4.806480   5.672366   6.898646
    29  H    5.877950   5.406802   5.167916   5.200349   6.722463
    30  H    7.411040   6.717317   6.416802   6.845169   8.275443
    31  C    5.571751   5.109957   5.944675   5.446966   6.664899
    32  C    4.797772   4.496686   5.649339   4.893408   5.862278
    33  C    5.957095   5.768804   7.033628   6.146512   6.965663
    34  H    6.190129   5.931616   6.766816   5.933656   7.288038
    35  H    6.378025   5.723809   6.497205   6.350137   7.450900
    36  H    4.112018   4.133974   5.343596   4.100001   5.176922
    37  H    4.388424   3.828761   4.996926   4.681145   5.402479
    38  H    6.716906   6.321062   7.512298   6.963351   7.718529
    39  H    6.538647   6.511525   7.748532   6.584539   7.561473
    40  H    5.799782   5.741154   7.131656   6.129390   6.721466
                    6          7          8          9         10
     6  H    0.000000
     7  H    1.760000   0.000000
     8  H    3.074390   2.517275   0.000000
     9  H    2.517275   3.074390   1.770000   0.000000
    10  H    2.508383   2.508383   1.771810   1.771810   0.000000
    11  C    2.776381   2.776381   4.228002   4.228002   4.730015
    12  C    4.203070   4.203070   5.248682   5.248682   6.032715
    13  C    5.211519   5.211519   6.635279   6.635279   7.274720
    14  H    2.551217   3.099973   4.755777   4.415730   4.888413
    15  H    3.099347   2.551148   4.416157   4.755801   4.888347
    16  H    4.387743   4.727567   5.422721   5.127446   6.192291
    17  H    4.727567   4.387743   5.127446   5.422721   6.192291
    18  H    5.422721   5.127446   6.782504   7.009654   7.408767
    19  H    5.127446   5.422721   7.009654   6.782504   7.408767
    20  H    6.192291   6.192291   7.408767   7.408767   8.180649
    21  C    3.387808   5.094860   6.014554   4.648895   4.946952
    22  C    4.677218   6.378461   6.936478   5.403653   5.738028
    23  C    4.844559   6.477358   6.465618   4.817962   5.289498
    24  H    3.130900   4.882720   5.605070   4.159161   4.824615
    25  H    2.710770   4.321455   5.270201   4.047711   4.033040
    26  H    5.430950   7.172775   7.746413   6.158628   6.680358
    27  H    5.199568   6.802644   7.506993   6.083187   6.132726
    28  H    4.432777   5.921075   5.805922   4.267500   4.472819
    29  H    4.703530   6.345176   6.114037   4.374966   5.202195
    30  H    5.924892   7.531343   7.394763   5.739592   6.190034
    31  C    4.031749   5.568209   6.985371   5.827662   5.981368
    32  C    3.519158   4.775603   6.586663   5.736114   5.818310
    33  C    4.873759   5.873450   7.915622   7.200843   7.194535
    34  H    4.889157   6.465869   7.791991   6.535273   6.892283
    35  H    4.631434   6.053268   7.554728   6.464960   6.363383
    36  H    3.271822   4.549139   6.214772   5.345726   5.713743
    37  H    2.871430   3.939788   5.913664   5.258637   5.062608
    38  H    5.386075   6.332618   8.425531   7.735263   7.522435
    39  H    5.611015   6.730838   8.640734   7.795067   7.977703
    40  H    4.992248   5.704039   7.910902   7.411180   7.363913
                   11         12         13         14         15
    11  C    0.000000
    12  C    1.529047   0.000000
    13  C    2.546287   1.528985   0.000000
    14  H    1.098815   2.155330   2.768927   0.000000
    15  H    1.098610   2.155655   2.768905   1.761000   0.000000
    16  H    2.152561   1.097550   2.161692   2.500372   3.058420
    17  H    2.152561   1.097550   2.161692   3.058264   2.501266
    18  H    2.803300   2.171275   1.094806   3.123411   2.576301
    19  H    2.803300   2.171275   1.094806   2.576229   3.122903
    20  H    3.500761   2.182504   1.094468   3.775137   3.775302
    21  C    5.203022   6.256603   6.883483   4.343698   5.775134
    22  C    6.641137   7.636273   8.307663   5.819983   7.258597
    23  C    7.005651   7.992349   8.892707   6.366508   7.682934
    24  H    4.598389   5.498578   6.220596   3.794957   5.333473
    25  H    4.970897   6.211488   6.942484   4.234079   5.408891
    26  H    7.067252   7.896429   8.466004   6.188245   7.762513
    27  H    7.314345   8.407561   9.008947   6.466164   7.813876
    28  H    6.868966   7.989690   8.971326   6.326490   7.445848
    29  H    6.603705   7.446765   8.422760   6.040495   7.391621
    30  H    8.089975   9.043089   9.934128   7.443664   8.776978
    31  C    5.330006   6.314295   6.603428   4.307247   5.770998
    32  C    4.231348   5.218365   5.338439   3.174349   4.527467
    33  C    5.088448   5.884623   5.603427   4.047061   5.207701
    34  H    5.855808   6.629684   6.805102   4.797141   6.396904
    35  H    6.152698   7.231978   7.470761   5.151589   6.459964
    36  H    3.462492   4.282103   4.453601   2.370000   3.950698
    37  H    3.942391   5.164291   5.415023   3.022219   4.050687
    38  H    5.939045   6.852873   6.591319   4.932877   5.951580
    39  H    5.630140   6.211362   5.822686   4.560306   5.883597
    40  H    4.725182   5.434388   4.959369   3.782406   4.681440
                   16         17         18         19         20
    16  H    0.000000
    17  H    1.760000   0.000000
    18  H    3.074390   2.517275   0.000000
    19  H    2.517275   3.074390   1.770000   0.000000
    20  H    2.508383   2.508383   1.771810   1.771810   0.000000
    21  C    6.028587   7.129110   7.354040   6.286436   7.753430
    22  C    7.294131   8.486032   8.836420   7.692013   9.124182
    23  C    7.576375   8.711365   9.462428   8.422950   9.678088
    24  H    5.140032   6.360688   6.808446   5.677742   7.019297
    25  H    6.124661   6.988431   7.293501   6.465609   7.887179
    26  H    7.451282   8.801993   9.079333   7.768917   9.199439
    27  H    8.160729   9.264877   9.447802   8.361291   9.876724
    28  H    7.684065   8.628701   9.449080   8.589991   9.817558
    29  H    6.921418   8.126752   9.078526   8.011150   9.131868
    30  H    8.582434   9.760889  10.527538   9.438721  10.693425
    31  C    6.201332   7.294276   6.992317   5.835987   7.481394
    32  C    5.303265   6.208585   5.605416   4.575976   6.274140
    33  C    6.073710   6.901728   5.738284   4.703507   6.473994
    34  H    6.388177   7.662402   7.300627   5.940860   7.576229
    35  H    7.204229   8.191020   7.754995   6.697891   8.386709
    36  H    4.267431   5.310444   4.870475   3.697961   5.342784
    37  H    5.411734   6.046791   5.527044   4.819756   6.439360
    38  H    7.091905   7.835008   6.629898   5.727153   7.489773
    39  H    6.257498   7.278528   6.090162   4.815689   6.565309
    40  H    5.782460   6.407056   4.943682   4.096732   5.833716
                   21         22         23         24         25
    21  C    0.000000
    22  C    1.529047   0.000000
    23  C    2.546287   1.528984   0.000000
    24  H    1.098610   2.155655   2.768905   0.000000
    25  H    1.098815   2.155329   2.768927   1.761000   0.000000
    26  H    2.152561   1.097550   2.161692   2.501266   3.058263
    27  H    2.152561   1.097551   2.161693   3.058419   2.500371
    28  H    2.803300   2.171275   1.094806   3.122903   2.576229
    29  H    2.803301   2.171275   1.094807   2.576301   3.123411
    30  H    3.500761   2.182504   1.094468   3.775301   3.775137
    31  C    1.527654   2.554280   3.916783   2.155750   2.155507
    32  C    2.554280   3.923128   5.100546   2.781359   2.781504
    33  C    3.916782   5.100546   6.427736   4.204569   4.204484
    34  H    2.155507   2.781504   4.204484   2.504588   3.061615
    35  H    2.155749   2.781358   4.204569   3.061809   2.504587
    36  H    2.776381   4.203070   5.211519   2.551148   3.099973
    37  H    2.776381   4.203070   5.211519   3.099348   2.551218
    38  H    4.228001   5.248681   6.635278   4.755801   4.415730
    39  H    4.228001   5.248681   6.635278   4.416157   4.755777
    40  H    4.730015   6.032715   7.274720   4.888348   4.888414
                   26         27         28         29         30
    26  H    0.000000
    27  H    1.760000   0.000000
    28  H    3.074390   2.517276   0.000000
    29  H    2.517276   3.074391   1.770000   0.000000
    30  H    2.508383   2.508384   1.771809   1.771809   0.000000
    31  C    2.776382   2.776381   4.228003   4.228003   4.730016
    32  C    4.203070   4.203070   5.248682   5.248682   6.032715
    33  C    5.211519   5.211518   6.635279   6.635279   7.274720
    34  H    2.551218   3.099972   4.755777   4.415731   4.888414
    35  H    3.099347   2.551147   4.416157   4.755801   4.888347
    36  H    4.387744   4.727567   5.422721   5.127446   6.192291
    37  H    4.727567   4.387743   5.127446   5.422721   6.192291
    38  H    5.422720   5.127445   6.782503   7.009654   7.408766
    39  H    5.127445   5.422720   7.009654   6.782503   7.408766
    40  H    6.192291   6.192291   7.408767   7.408767   8.180649
                   31         32         33         34         35
    31  C    0.000000
    32  C    1.529047   0.000000
    33  C    2.546286   1.528984   0.000000
    34  H    1.098815   2.155330   2.768927   0.000000
    35  H    1.098610   2.155656   2.768905   1.761000   0.000000
    36  H    2.152561   1.097550   2.161693   2.500372   3.058419
    37  H    2.152560   1.097550   2.161692   3.058264   2.501265
    38  H    2.803299   2.171275   1.094806   3.123410   2.576300
    39  H    2.803299   2.171275   1.094807   2.576229   3.122903
    40  H    3.500761   2.182504   1.094468   3.775138   3.775302
                   36         37         38         39         40
    36  H    0.000000
    37  H    1.760001   0.000000
    38  H    3.074390   2.517275   0.000000
    39  H    2.517275   3.074390   1.770000   0.000000
    40  H    2.508383   2.508384   1.771810   1.771810   0.000000
 Stoichiometry    C12H28
 Framework group  C1[X(C12H28)]
 Deg. of freedom   114
 Full point group                 C1      NOp   1
 Largest Abelian subgroup         C1      NOp   1
 Largest concise Abelian subgroup C1      NOp   1
                         Standard orientation:                         
 ---------------------------------------------------------------------
 Center     Atomic      Atomic             Coordinates (Angstroms)
 Number     Number       Type             X           Y           Z
 ---------------------------------------------------------------------
      1          6           0        2.211096   -1.576175   -0.029324
      2          6           0        1.200404   -1.959260    1.052219
      3          6           0        0.745320   -3.415153    0.947016
      4          1           0        1.765046   -1.751889   -1.017812
      5          1           0        3.083675   -2.240151    0.042348
      6          1           0        0.330599   -1.293863    0.979412
      7          1           0        1.648843   -1.782433    2.038247
      8          1           0        1.599382   -4.093538    1.041742
      9          1           0        0.273647   -3.602192   -0.023109
     10          1           0        0.023116   -3.667581    1.729680
     11          6           0        2.675520   -0.123737    0.062657
     12          6           0        3.686212    0.259348   -1.018885
     13          6           0        4.141296    1.715241   -0.913682
     14          1           0        1.802941    0.540239   -0.009015
     15          1           0        3.121570    0.051977    1.051145
     16          1           0        3.237773    0.082521   -2.004913
     17          1           0        4.556017   -0.406049   -0.946079
     18          1           0        4.612969    1.902280    0.056442
     19          1           0        3.287234    2.393626   -1.008408
     20          1           0        4.863499    1.967670   -1.696346
     21          6           0       -2.515301    0.112839   -0.203502
     22          6           0       -3.924136   -0.260755   -0.665669
     23          6           0       -4.052345   -1.738674   -1.035952
     24          1           0       -1.798482   -0.130690   -0.999623
     25          1           0       -2.244172   -0.507767    0.661791
     26          1           0       -4.193065    0.361336   -1.528975
     27          1           0       -4.637708   -0.016131    0.131571
     28          1           0       -3.810185   -2.373340   -0.177374
     29          1           0       -3.363015   -1.993729   -1.847354
     30          1           0       -5.067451   -1.983884   -1.363507
     31          6           0       -2.371314    1.587073    0.170169
     32          6           0       -0.962479    1.960666    0.632335
     33          6           0       -0.834271    3.438585    1.002619
     34          1           0       -2.642445    2.207679   -0.695124
     35          1           0       -3.088134    1.830601    0.966289
     36          1           0       -0.248908    1.716043   -0.164904
     37          1           0       -0.693551    1.338576    1.495642
     38          1           0       -1.523602    3.693640    1.814020
     39          1           0       -1.076432    4.073251    0.144039
     40          1           0        0.180836    3.683795    1.330173
 ---------------------------------------------------------------------
 Rotational constants (GHZ):           0.6564015           0.3503877           0.2564460
 Leave Link  202 at Thu May  6 00:34:37 2021, MaxMem=   524288000 cpu:               0.1 elap:               0.2
 (Enter /opt/gaussian/g16_legacy/l301.exe)
 Standard basis: 6-31G(d) (6D, 7F)
 Ernie: Thresh=  0.10000D-02 Tol=  0.10000D-05 Strict=F.
 There are   236 symmetry adapted cartesian basis functions of A   symmetry.
 There are   236 symmetry adapted basis functions of A   symmetry.
   236 basis functions,   448 primitive gaussians,   236 cartesian basis functions
    50 alpha electrons       50 beta electrons
       nuclear repulsion energy       715.3781073421 Hartrees.
 IExCor=    0 DFT=F Ex=HF Corr=None ExCW=0 ScaHFX=  1.000000
 ScaDFX=  1.000000  1.000000  1.000000  1.000000 ScalE2=  1.000000  1.000000
 IRadAn=      5 IRanWt=     -1 IRanGd=            0 ICorTp=0 IEmpDi=  4
 NAtoms=   40 NActive=   40 NUniq=   40 SFac= 1.00D+00 NAtFMM=   60 NAOKFM=F Big=F
 Integral buffers will be    131072 words long.
 Raffenetti 1 integral format.
 Two-electron integral symmetry is turned on.
 Leave Link  301 at Thu May  6 00:34:38 2021, MaxMem=   524288000 cpu:               0.3 elap:               0.3
 (Enter /opt/gaussian/g16_legacy/l302.exe)
 NPDir=0 NMtPBC=     1 NCelOv=     1 NCel=       1 NClECP=     1 NCelD=      1
         NCelK=      1 NCelE2=     1 NClLst=     1 CellRange=     0.0.
 One-electron integrals computed using PRISM.
 One-electron integral symmetry used in STVInt
 NBasis=   236 RedAO= T EigKep=  3.12D-03  NBF=   236
 NBsUse=   236 1.00D-06 EigRej= -1.00D+00 NBFU=   236
 Leave Link  302 at Thu May  6 00:34:39 2021, MaxMem=   524288000 cpu:               0.9 elap:               1.0
 (Enter /opt/gaussian/g16_legacy/l303.exe)
 DipDrv:  MaxL=1.
 Leave Link  303 at Thu May  6 00:34:39 2021, MaxMem=   524288000 cpu:               0.1 elap:               0.1
 (Enter /opt/gaussian/g16_legacy/l401.exe)
 ExpMin= 1.61D-01 ExpMax= 3.05D+03 ExpMxC= 4.57D+02 IAcc=3 IRadAn=         5 AccDes= 0.00D+00
 Harris functional with IExCor=  205 and IRadAn=       5 diagonalized for initial guess.
 HarFok:  IExCor=  205 AccDes= 0.00D+00 IRadAn=         5 IDoV= 1 UseB2=F ITyADJ=14
 ICtDFT=  3500011 ScaDFX=  1.000000  1.000000  1.000000  1.000000
 FoFCou: FMM=F IPFlag=           0 FMFlag=      100000 FMFlg1=           0
         NFxFlg=           0 DoJE=T BraDBF=F KetDBF=T FulRan=T
         wScrn=  0.000000 ICntrl=       500 IOpCl=  0 I1Cent=   200000004 NGrid=           0
         NMat0=    1 NMatS0=      1 NMatT0=    0 NMatD0=    1 NMtDS0=    0 NMtDT0=    0
 Petite list used in FoFCou.
 Harris En= -472.098931812985    
 JPrj=0 DoOrth=F DoCkMO=F.
 Leave Link  401 at Thu May  6 00:34:48 2021, MaxMem=   524288000 cpu:              18.0 elap:               9.1
 (Enter /opt/gaussian/g16_legacy/l502.exe)
 Keep R1 ints in memory in canonical form, NReq=397720540.
 FoFCou: FMM=F IPFlag=           0 FMFlag=           0 FMFlg1=           0
         NFxFlg=           0 DoJE=F BraDBF=F KetDBF=F FulRan=T
         wScrn=  0.000000 ICntrl=       600 IOpCl=  0 I1Cent=           0 NGrid=           0
         NMat0=    1 NMatS0=  27966 NMatT0=    0 NMatD0=    1 NMtDS0=    0 NMtDT0=    0
 Symmetry not used in FoFCou.
 Two-electron integral symmetry not used.
 Closed shell SCF:
 Using DIIS extrapolation, IDIIS=  1040.
 NGot=   524288000 LenX=   133109463 LenY=   133053326
 Requested convergence on RMS density matrix=1.00D-08 within 128 cycles.
 Requested convergence on MAX density matrix=1.00D-06.
 Requested convergence on             energy=1.00D-06.
 No special actions if energy rises.

 Cycle   1  Pass 1  IDiag  1:
 E= -469.872508217013    
 DIIS: error= 5.58D-02 at cycle   1 NSaved=   1.
 NSaved= 1 IEnMin= 1 EnMin= -469.872508217013     IErMin= 1 ErrMin= 5.58D-02
 ErrMax= 5.58D-02  0.00D+00 EMaxC= 1.00D-01 BMatC= 1.07D+00 BMatP= 1.07D+00
 IDIUse=3 WtCom= 4.42D-01 WtEn= 5.58D-01
 Coeff-Com:  0.100D+01
 Coeff-En:   0.100D+01
 Coeff:      0.100D+01
 Gap=     0.620 Goal=   None    Shift=    0.000
 GapD=    0.620 DampG=2.000 DampE=0.500 DampFc=1.0000 IDamp=-1.
 RMSDP=4.72D-03 MaxDP=1.19D-01              OVMax= 1.34D-01

 Cycle   2  Pass 1  IDiag  1:
 E= -470.596058677227     Delta-E=       -0.723550460214 Rises=F Damp=F
 DIIS: error= 2.26D-02 at cycle   2 NSaved=   2.
 NSaved= 2 IEnMin= 2 EnMin= -470.596058677227     IErMin= 2 ErrMin= 2.26D-02
 ErrMax= 2.26D-02  0.00D+00 EMaxC= 1.00D-01 BMatC= 1.46D-01 BMatP= 1.07D+00
 IDIUse=3 WtCom= 7.74D-01 WtEn= 2.26D-01
 Coeff-Com:  0.219D+00 0.781D+00
 Coeff-En:   0.000D+00 0.100D+01
 Coeff:      0.170D+00 0.830D+00
 Gap=     0.672 Goal=   None    Shift=    0.000
 RMSDP=1.73D-03 MaxDP=3.39D-02 DE=-7.24D-01 OVMax= 4.82D-02

 Cycle   3  Pass 1  IDiag  1:
 E= -470.726940028692     Delta-E=       -0.130881351465 Rises=F Damp=F
 DIIS: error= 4.44D-03 at cycle   3 NSaved=   3.
 NSaved= 3 IEnMin= 3 EnMin= -470.726940028692     IErMin= 3 ErrMin= 4.44D-03
 ErrMax= 4.44D-03  0.00D+00 EMaxC= 1.00D-01 BMatC= 5.22D-03 BMatP= 1.46D-01
 IDIUse=3 WtCom= 9.56D-01 WtEn= 4.44D-02
 Coeff-Com: -0.263D-01 0.111D+00 0.915D+00
 Coeff-En:   0.000D+00 0.000D+00 0.100D+01
 Coeff:     -0.252D-01 0.107D+00 0.919D+00
 Gap=     0.645 Goal=   None    Shift=    0.000
 RMSDP=2.88D-04 MaxDP=7.22D-03 DE=-1.31D-01 OVMax= 9.82D-03

 Cycle   4  Pass 1  IDiag  1:
 E= -470.732819951670     Delta-E=       -0.005879922979 Rises=F Damp=F
 DIIS: error= 4.60D-04 at cycle   4 NSaved=   4.
 NSaved= 4 IEnMin= 4 EnMin= -470.732819951670     IErMin= 4 ErrMin= 4.60D-04
 ErrMax= 4.60D-04  0.00D+00 EMaxC= 1.00D-01 BMatC= 6.33D-05 BMatP= 5.22D-03
 IDIUse=3 WtCom= 9.95D-01 WtEn= 4.60D-03
 Coeff-Com:  0.149D-02-0.239D-01-0.960D-01 0.112D+01
 Coeff-En:   0.000D+00 0.000D+00 0.000D+00 0.100D+01
 Coeff:      0.149D-02-0.238D-01-0.956D-01 0.112D+01
 Gap=     0.644 Goal=   None    Shift=    0.000
 RMSDP=6.15D-05 MaxDP=1.21D-03 DE=-5.88D-03 OVMax= 1.81D-03

 Cycle   5  Pass 1  IDiag  1:
 E= -470.732926818792     Delta-E=       -0.000106867122 Rises=F Damp=F
 DIIS: error= 1.40D-04 at cycle   5 NSaved=   5.
 NSaved= 5 IEnMin= 5 EnMin= -470.732926818792     IErMin= 5 ErrMin= 1.40D-04
 ErrMax= 1.40D-04  0.00D+00 EMaxC= 1.00D-01 BMatC= 6.34D-06 BMatP= 6.33D-05
 IDIUse=3 WtCom= 9.99D-01 WtEn= 1.40D-03
 Coeff-Com:  0.218D-02-0.128D-01-0.822D-01 0.189D+00 0.904D+00
 Coeff-En:   0.000D+00 0.000D+00 0.000D+00 0.000D+00 0.100D+01
 Coeff:      0.217D-02-0.128D-01-0.821D-01 0.189D+00 0.904D+00
 Gap=     0.644 Goal=   None    Shift=    0.000
 RMSDP=1.57D-05 MaxDP=3.72D-04 DE=-1.07D-04 OVMax= 4.87D-04

 Cycle   6  Pass 1  IDiag  1:
 E= -470.732935685024     Delta-E=       -0.000008866232 Rises=F Damp=F
 DIIS: error= 2.88D-05 at cycle   6 NSaved=   6.
 NSaved= 6 IEnMin= 6 EnMin= -470.732935685024     IErMin= 6 ErrMin= 2.88D-05
 ErrMax= 2.88D-05  0.00D+00 EMaxC= 1.00D-01 BMatC= 1.43D-07 BMatP= 6.34D-06
 IDIUse=1 WtCom= 1.00D+00 WtEn= 0.00D+00
 Coeff-Com:  0.136D-03-0.285D-03-0.315D-02-0.324D-01 0.667D-01 0.969D+00
 Coeff:      0.136D-03-0.285D-03-0.315D-02-0.324D-01 0.667D-01 0.969D+00
 Gap=     0.644 Goal=   None    Shift=    0.000
 RMSDP=3.35D-06 MaxDP=6.65D-05 DE=-8.87D-06 OVMax= 9.98D-05

 Cycle   7  Pass 1  IDiag  1:
 E= -470.732935925150     Delta-E=       -0.000000240126 Rises=F Damp=F
 DIIS: error= 3.77D-06 at cycle   7 NSaved=   7.
 NSaved= 7 IEnMin= 7 EnMin= -470.732935925150     IErMin= 7 ErrMin= 3.77D-06
 ErrMax= 3.77D-06  0.00D+00 EMaxC= 1.00D-01 BMatC= 5.22D-09 BMatP= 1.43D-07
 IDIUse=1 WtCom= 1.00D+00 WtEn= 0.00D+00
 Coeff-Com: -0.544D-04 0.356D-03 0.237D-02-0.706D-02-0.244D-01 0.197D-01
 Coeff-Com:  0.101D+01
 Coeff:     -0.544D-04 0.356D-03 0.237D-02-0.706D-02-0.244D-01 0.197D-01
 Coeff:      0.101D+01
 Gap=     0.644 Goal=   None    Shift=    0.000
 RMSDP=7.17D-07 MaxDP=1.30D-05 DE=-2.40D-07 OVMax= 1.93D-05

 Cycle   8  Pass 1  IDiag  1:
 E= -470.732935934265     Delta-E=       -0.000000009115 Rises=F Damp=F
 DIIS: error= 1.78D-06 at cycle   8 NSaved=   8.
 NSaved= 8 IEnMin= 8 EnMin= -470.732935934265     IErMin= 8 ErrMin= 1.78D-06
 ErrMax= 1.78D-06  0.00D+00 EMaxC= 1.00D-01 BMatC= 5.71D-10 BMatP= 5.22D-09
 IDIUse=1 WtCom= 1.00D+00 WtEn= 0.00D+00
 Coeff-Com: -0.158D-04 0.662D-04 0.538D-03 0.122D-02-0.748D-02-0.643D-01
 Coeff-Com:  0.148D+00 0.922D+00
 Coeff:     -0.158D-04 0.662D-04 0.538D-03 0.122D-02-0.748D-02-0.643D-01
 Coeff:      0.148D+00 0.922D+00
 Gap=     0.644 Goal=   None    Shift=    0.000
 RMSDP=1.92D-07 MaxDP=3.82D-06 DE=-9.12D-09 OVMax= 7.22D-06

 Cycle   9  Pass 1  IDiag  1:
 E= -470.732935935181     Delta-E=       -0.000000000915 Rises=F Damp=F
 DIIS: error= 3.80D-07 at cycle   9 NSaved=   9.
 NSaved= 9 IEnMin= 9 EnMin= -470.732935935181     IErMin= 9 ErrMin= 3.80D-07
 ErrMax= 3.80D-07  0.00D+00 EMaxC= 1.00D-01 BMatC= 3.47D-11 BMatP= 5.71D-10
 IDIUse=1 WtCom= 1.00D+00 WtEn= 0.00D+00
 Coeff-Com:  0.494D-05-0.314D-04-0.213D-03 0.462D-03 0.250D-02 0.256D-02
 Coeff-Com: -0.872D-01-0.592D-01 0.114D+01
 Coeff:      0.494D-05-0.314D-04-0.213D-03 0.462D-03 0.250D-02 0.256D-02
 Coeff:     -0.872D-01-0.592D-01 0.114D+01
 Gap=     0.644 Goal=   None    Shift=    0.000
 RMSDP=6.90D-08 MaxDP=1.15D-06 DE=-9.15D-10 OVMax= 1.99D-06

 Cycle  10  Pass 1  IDiag  1:
 E= -470.732935935262     Delta-E=       -0.000000000081 Rises=F Damp=F
 DIIS: error= 7.60D-08 at cycle  10 NSaved=  10.
 NSaved=10 IEnMin=10 EnMin= -470.732935935262     IErMin=10 ErrMin= 7.60D-08
 ErrMax= 7.60D-08  0.00D+00 EMaxC= 1.00D-01 BMatC= 1.42D-12 BMatP= 3.47D-11
 IDIUse=1 WtCom= 1.00D+00 WtEn= 0.00D+00
 Coeff-Com:  0.326D-06-0.504D-06-0.910D-05-0.127D-03 0.189D-03 0.368D-02
 Coeff-Com:  0.256D-03-0.512D-01-0.110D+00 0.116D+01
 Coeff:      0.326D-06-0.504D-06-0.910D-05-0.127D-03 0.189D-03 0.368D-02
 Coeff:      0.256D-03-0.512D-01-0.110D+00 0.116D+01
 Gap=     0.644 Goal=   None    Shift=    0.000
 RMSDP=1.43D-08 MaxDP=3.05D-07 DE=-8.12D-11 OVMax= 5.08D-07

 Cycle  11  Pass 1  IDiag  1:
 E= -470.732935935254     Delta-E=        0.000000000008 Rises=F Damp=F
 DIIS: error= 8.07D-09 at cycle  11 NSaved=  11.
 NSaved=11 IEnMin=10 EnMin= -470.732935935262     IErMin=11 ErrMin= 8.07D-09
 ErrMax= 8.07D-09  0.00D+00 EMaxC= 1.00D-01 BMatC= 3.97D-14 BMatP= 1.42D-12
 IDIUse=1 WtCom= 1.00D+00 WtEn= 0.00D+00
 Coeff-Com: -0.177D-06 0.986D-06 0.700D-05 0.867D-05-0.102D-03-0.655D-03
 Coeff-Com:  0.228D-02 0.962D-02-0.951D-02-0.204D+00 0.120D+01
 Coeff:     -0.177D-06 0.986D-06 0.700D-05 0.867D-05-0.102D-03-0.655D-03
 Coeff:      0.228D-02 0.962D-02-0.951D-02-0.204D+00 0.120D+01
 Gap=     0.644 Goal=   None    Shift=    0.000
 RMSDP=1.98D-09 MaxDP=5.21D-08 DE= 8.19D-12 OVMax= 6.27D-08

 SCF Done:  E(RHF) =  -470.732935935     A.U. after   11 cycles
            NFock= 11  Conv=0.20D-08     -V/T= 2.0011
 KE= 4.702292712710D+02 PE=-2.523893748594D+03 EE= 8.675534340458D+02
 Leave Link  502 at Thu May  6 00:35:07 2021, MaxMem=   524288000 cpu:              29.0 elap:              19.0
 (Enter /opt/gaussian/g16_legacy/l801.exe)
 ExpMin= 1.61D-01 ExpMax= 3.05D+03 ExpMxC= 4.57D+02 IAcc=3 IRadAn=         5 AccDes= 0.00D+00
 HarFok:  IExCor=  205 AccDes= 0.00D+00 IRadAn=         5 IDoV=-2 UseB2=F ITyADJ=14
 ICtDFT= 12500011 ScaDFX=  1.000000  1.000000  1.000000  1.000000
 Largest valence mixing into a core orbital is  1.98D-04
 Largest core mixing into a valence orbital is  3.29D-05
 Range of M.O.s used for correlation:    13   236
 NBasis=   236 NAE=    50 NBE=    50 NFC=    12 NFV=     0
 NROrb=    224 NOA=    38 NOB=    38 NVA=   186 NVB=   186
 Leave Link  801 at Thu May  6 00:35:09 2021, MaxMem=   524288000 cpu:               2.1 elap:               1.1
 (Enter /opt/gaussian/g16_legacy/l906.exe)
 FulOut=F Deriv=F AODrv=F NAtomX=    40
   MMem=         154  MDisk=          38 MDiskD=          38
  W3Min=     1668048 MinDsk=     1838182 NBas6D=         236
 NBas2D=       28290    NTT=       27966    LW2=     2000000
    MDV=   523920073 MDiskM=       30715 NBas2p=       21674
 Fully direct method using O(OVN) memory.
 IMap=   1   2   3   4   5   6   7   8   9  10  11  12  13  14  15  16  17  18  19  20
 IMap=  21  22  23  24  25  26  27  28  29  30  31  32  33  34  35  36  37  38
 JobTyp=1 Pass  1:  I=   1 to  38 NPSUse=  2 ParTrn=T ParDer=T DoDerP=F.
 Spin components of T(2) and E(2):
     alpha-alpha T2 =       0.6296860040D-01 E2=     -0.1845801442D+00
     alpha-beta  T2 =       0.4046350391D+00 E2=     -0.1215190361D+01
     beta-beta   T2 =       0.6296860040D-01 E2=     -0.1845801442D+00
 The integrals were generated   1 times.
 ANorm=    0.1237162980D+01
 E2 =    -0.1584350649D+01 EUMP2 =    -0.47231728658464D+03
 Leave Link  906 at Thu May  6 00:35:55 2021, MaxMem=   524288000 cpu:              91.0 elap:              46.3
 (Enter /opt/gaussian/g16_legacy/l601.exe)
 Copying SCF densities to generalized density rwf, IOpCl= 0 IROHF=0.

 **********************************************************************

            Population analysis using the SCF density.

 **********************************************************************

 Orbital symmetries:
       Occupied  (A) (A) (A) (A) (A) (A) (A) (A) (A) (A) (A) (A)
                 (A) (A) (A) (A) (A) (A) (A) (A) (A) (A) (A) (A)
                 (A) (A) (A) (A) (A) (A) (A) (A) (A) (A) (A) (A)
                 (A) (A) (A) (A) (A) (A) (A) (A) (A) (A) (A) (A)
                 (A) (A)
       Virtual   (A) (A) (A) (A) (A) (A) (A) (A) (A) (A) (A) (A)
                 (A) (A) (A) (A) (A) (A) (A) (A) (A) (A) (A) (A)
                 (A) (A) (A) (A) (A) (A) (A) (A) (A) (A) (A) (A)
                 (A) (A) (A) (A) (A) (A) (A) (A) (A) (A) (A) (A)
                 (A) (A) (A) (A) (A) (A) (A) (A) (A) (A) (A) (A)
                 (A) (A) (A) (A) (A) (A) (A) (A) (A) (A) (A) (A)
                 (A) (A) (A) (A) (A) (A) (A) (A) (A) (A) (A) (A)
                 (A) (A) (A) (A) (A) (A) (A) (A) (A) (A) (A) (A)
                 (A) (A) (A) (A) (A) (A) (A) (A) (A) (A) (A) (A)
                 (A) (A) (A) (A) (A) (A) (A) (A) (A) (A) (A) (A)
                 (A) (A) (A) (A) (A) (A) (A) (A) (A) (A) (A) (A)
                 (A) (A) (A) (A) (A) (A) (A) (A) (A) (A) (A) (A)
                 (A) (A) (A) (A) (A) (A) (A) (A) (A) (A) (A) (A)
                 (A) (A) (A) (A) (A) (A) (A) (A) (A) (A) (A) (A)
                 (A) (A) (A) (A) (A) (A) (A) (A) (A) (A) (A) (A)
                 (A) (A) (A) (A) (A) (A)
 The electronic state is 1-A.
 Alpha  occ. eigenvalues --  -11.21671 -11.21663 -11.21559 -11.21493 -11.21487
 Alpha  occ. eigenvalues --  -11.21426 -11.21319 -11.21244 -11.21124 -11.21112
 Alpha  occ. eigenvalues --  -11.21053 -11.21012  -1.08521  -1.08351  -1.03597
 Alpha  occ. eigenvalues --   -1.03471  -0.96043  -0.95922  -0.87059  -0.86938
 Alpha  occ. eigenvalues --   -0.79688  -0.79531  -0.78470  -0.78036  -0.65159
 Alpha  occ. eigenvalues --   -0.64988  -0.61016  -0.60856  -0.59416  -0.59293
 Alpha  occ. eigenvalues --   -0.57690  -0.57500  -0.55328  -0.55215  -0.52739
 Alpha  occ. eigenvalues --   -0.52619  -0.52471  -0.52347  -0.50002  -0.49861
 Alpha  occ. eigenvalues --   -0.48056  -0.47857  -0.46784  -0.46629  -0.46258
 Alpha  occ. eigenvalues --   -0.45721  -0.45677  -0.45053  -0.43843  -0.43715
 Alpha virt. eigenvalues --    0.20735   0.22695   0.23642   0.24119   0.25649
 Alpha virt. eigenvalues --    0.26116   0.27239   0.27346   0.28277   0.29662
 Alpha virt. eigenvalues --    0.31072   0.31517   0.31754   0.31942   0.32199
 Alpha virt. eigenvalues --    0.32808   0.33212   0.33858   0.34089   0.34308
 Alpha virt. eigenvalues --    0.34359   0.34801   0.35445   0.35775   0.36381
 Alpha virt. eigenvalues --    0.36536   0.37570   0.39213   0.39920   0.40634
 Alpha virt. eigenvalues --    0.42788   0.43742   0.45203   0.45472   0.45740
 Alpha virt. eigenvalues --    0.46566   0.48110   0.49064   0.69021   0.69307
 Alpha virt. eigenvalues --    0.69555   0.70069   0.71357   0.73576   0.75093
 Alpha virt. eigenvalues --    0.75661   0.76407   0.76855   0.77996   0.78298
 Alpha virt. eigenvalues --    0.80771   0.82303   0.84075   0.84470   0.86742
 Alpha virt. eigenvalues --    0.87117   0.87914   0.88350   0.95531   0.95906
 Alpha virt. eigenvalues --    0.96544   0.96875   0.98190   0.98857   1.01560
 Alpha virt. eigenvalues --    1.01687   1.05202   1.06151   1.07408   1.07847
 Alpha virt. eigenvalues --    1.10833   1.11064   1.11942   1.13659   1.15457
 Alpha virt. eigenvalues --    1.16260   1.16684   1.17005   1.17523   1.17989
 Alpha virt. eigenvalues --    1.18765   1.18830   1.19699   1.19875   1.20318
 Alpha virt. eigenvalues --    1.20393   1.20936   1.21247   1.21527   1.21603
 Alpha virt. eigenvalues --    1.22287   1.22386   1.23229   1.23318   1.23683
 Alpha virt. eigenvalues --    1.25252   1.25830   1.26381   1.27170   1.27704
 Alpha virt. eigenvalues --    1.35583   1.38213   1.40725   1.44506   1.55345
 Alpha virt. eigenvalues --    1.56181   1.66108   1.66725   1.67240   1.67378
 Alpha virt. eigenvalues --    1.70772   1.72629   1.73023   1.73472   1.79347
 Alpha virt. eigenvalues --    1.80059   1.81281   1.81371   1.92834   1.93290
 Alpha virt. eigenvalues --    2.05343   2.05584   2.13071   2.13505   2.14834
 Alpha virt. eigenvalues --    2.14996   2.17798   2.17974   2.22408   2.22555
 Alpha virt. eigenvalues --    2.25616   2.25831   2.25874   2.27194   2.27728
 Alpha virt. eigenvalues --    2.28985   2.32872   2.33863   2.33989   2.34261
 Alpha virt. eigenvalues --    2.36021   2.36677   2.39566   2.40166   2.43008
 Alpha virt. eigenvalues --    2.43180   2.56702   2.56740   2.56852   2.56933
 Alpha virt. eigenvalues --    2.59541   2.59723   2.66772   2.66871   2.67658
 Alpha virt. eigenvalues --    2.67671   2.67782   2.67986   2.76859   2.77214
 Alpha virt. eigenvalues --    2.77517   2.77927   2.80042   2.80058   2.91439
 Alpha virt. eigenvalues --    2.92412   2.95060   2.96105   2.98298   2.98912
 Alpha virt. eigenvalues --    3.13858   3.14054   3.18486   3.18799   4.54890
 Alpha virt. eigenvalues --    4.57715   4.62522   4.63235   4.72155   4.72929
 Alpha virt. eigenvalues --    4.79817   4.80930   4.87992   4.89210   4.99900
 Alpha virt. eigenvalues --    5.01254
          Condensed to atoms (all electrons):
               1          2          3          4          5          6
     1  C    5.082954   0.351307  -0.057322   0.395948   0.396401  -0.042724
     2  C    0.351307   5.070634   0.339836  -0.041858  -0.042000   0.399218
     3  C   -0.057322   0.339836   5.097714  -0.002882  -0.002864  -0.039531
     4  H    0.395948  -0.041858  -0.002882   0.567887  -0.031567  -0.002957
     5  H    0.396401  -0.042000  -0.002864  -0.031567   0.567579   0.004443
     6  H   -0.042724   0.399218  -0.039531  -0.002957   0.004443   0.552609
     7  H   -0.043654   0.398736  -0.040021   0.004584  -0.002999  -0.031548
     8  H   -0.003760  -0.038875   0.391208   0.000161   0.002631   0.004171
     9  H   -0.003798  -0.038815   0.391234   0.002631   0.000159  -0.002924
    10  H    0.004404  -0.035907   0.394010  -0.000058  -0.000059  -0.002500
    11  C    0.354883  -0.051562   0.004061  -0.041651  -0.041736  -0.003137
    12  C   -0.051862   0.003974  -0.000085  -0.003271  -0.003313  -0.000054
    13  C    0.004075  -0.000085   0.000001  -0.000052  -0.000052  -0.000000
    14  H   -0.041472  -0.003163  -0.000043  -0.002802   0.004396   0.001903
    15  H   -0.041669  -0.003263  -0.000052   0.004474  -0.002795   0.000253
    16  H   -0.003195  -0.000065  -0.000000   0.002420   0.000239   0.000017
    17  H   -0.003184  -0.000066  -0.000000   0.000239   0.002420  -0.000004
    18  H   -0.000070  -0.000001  -0.000000  -0.000001   0.000013   0.000000
    19  H   -0.000070  -0.000000  -0.000000   0.000014  -0.000001  -0.000002
    20  H   -0.000087   0.000001  -0.000000   0.000001   0.000001   0.000000
    21  C    0.000004  -0.000265   0.000006   0.000003  -0.000000   0.000339
    22  C   -0.000000   0.000006  -0.000000  -0.000000   0.000000  -0.000011
    23  C   -0.000000  -0.000000  -0.000003  -0.000000   0.000000   0.000003
    24  H    0.000014  -0.000042  -0.000005   0.000057  -0.000000   0.000227
    25  H   -0.000000  -0.000219   0.000055  -0.000001  -0.000000   0.000986
    26  H    0.000000  -0.000000   0.000000   0.000000  -0.000000   0.000000
    27  H    0.000000  -0.000000  -0.000000   0.000000   0.000000   0.000001
    28  H    0.000000  -0.000003   0.000007  -0.000000  -0.000000   0.000003
    29  H   -0.000000  -0.000000  -0.000000   0.000000  -0.000000   0.000001
    30  H   -0.000000   0.000000   0.000000  -0.000000   0.000000  -0.000000
    31  C   -0.000002   0.000019   0.000000  -0.000000   0.000000  -0.000138
    32  C    0.000034  -0.000133   0.000002  -0.000000  -0.000000   0.000163
    33  C   -0.000000   0.000003  -0.000000  -0.000000   0.000000  -0.000003
    34  H    0.000000  -0.000001   0.000000  -0.000000  -0.000000   0.000002
    35  H    0.000000  -0.000001   0.000000   0.000000  -0.000000   0.000003
    36  H    0.000048  -0.000046   0.000000   0.000013  -0.000001   0.000055
    37  H   -0.000032  -0.000016  -0.000002   0.000002   0.000000   0.000725
    38  H    0.000000  -0.000000   0.000000   0.000000  -0.000000   0.000000
    39  H    0.000000  -0.000000   0.000000  -0.000000  -0.000000   0.000000
    40  H   -0.000000   0.000000  -0.000000   0.000000   0.000000  -0.000000
               7          8          9         10         11         12
     1  C   -0.043654  -0.003760  -0.003798   0.004404   0.354883  -0.051862
     2  C    0.398736  -0.038875  -0.038815  -0.035907  -0.051562   0.003974
     3  C   -0.040021   0.391208   0.391234   0.394010   0.004061  -0.000085
     4  H    0.004584   0.000161   0.002631  -0.000058  -0.041651  -0.003271
     5  H   -0.002999   0.002631   0.000159  -0.000059  -0.041736  -0.003313
     6  H   -0.031548   0.004171  -0.002924  -0.002500  -0.003137  -0.000054
     7  H    0.565730  -0.002897   0.004229  -0.002503  -0.003219  -0.000065
     8  H   -0.002897   0.549223  -0.029163  -0.027557  -0.000071  -0.000001
     9  H    0.004229  -0.029163   0.548518  -0.027503  -0.000070  -0.000001
    10  H   -0.002503  -0.027557  -0.027503   0.538507  -0.000087   0.000001
    11  C   -0.003219  -0.000071  -0.000070  -0.000087   5.095375   0.351223
    12  C   -0.000065  -0.000001  -0.000001   0.000001   0.351223   5.061300
    13  C   -0.000000  -0.000000  -0.000000  -0.000000  -0.057241   0.340596
    14  H    0.000260  -0.000002   0.000014   0.000001   0.396197  -0.041916
    15  H    0.002411   0.000013  -0.000001   0.000001   0.396019  -0.041861
    16  H   -0.000003   0.000000  -0.000002   0.000000  -0.043641   0.399031
    17  H    0.000017  -0.000002   0.000000   0.000000  -0.043545   0.399068
    18  H   -0.000002   0.000000  -0.000000  -0.000000  -0.003802  -0.038873
    19  H    0.000000  -0.000000   0.000000  -0.000000  -0.003617  -0.039014
    20  H    0.000000  -0.000000  -0.000000   0.000000   0.004387  -0.035831
    21  C    0.000002   0.000000   0.000010   0.000000  -0.000002  -0.000000
    22  C   -0.000000   0.000000  -0.000002  -0.000000   0.000000  -0.000000
    23  C   -0.000000   0.000000   0.000006  -0.000000  -0.000000  -0.000000
    24  H    0.000002  -0.000000   0.000018  -0.000001  -0.000009  -0.000000
    25  H    0.000003  -0.000000   0.000009   0.000023  -0.000002   0.000000
    26  H    0.000000   0.000000   0.000000   0.000000  -0.000000   0.000000
    27  H    0.000000   0.000000   0.000000  -0.000000  -0.000000   0.000000
    28  H    0.000000  -0.000000   0.000012   0.000006  -0.000000   0.000000
    29  H    0.000000  -0.000000   0.000010  -0.000000  -0.000000   0.000000
    30  H    0.000000  -0.000000  -0.000000  -0.000000   0.000000  -0.000000
    31  C   -0.000000  -0.000000  -0.000000  -0.000000   0.000019  -0.000000
    32  C   -0.000004  -0.000000  -0.000000   0.000000  -0.000617   0.000009
    33  C   -0.000000   0.000000  -0.000000  -0.000000   0.000014  -0.000000
    34  H    0.000000  -0.000000   0.000000   0.000000  -0.000000   0.000000
    35  H    0.000000  -0.000000   0.000000  -0.000000  -0.000000   0.000000
    36  H    0.000001  -0.000000  -0.000000  -0.000000  -0.000576   0.000029
    37  H    0.000033   0.000000   0.000000  -0.000000   0.000017  -0.000000
    38  H    0.000000  -0.000000   0.000000  -0.000000  -0.000000   0.000000
    39  H    0.000000  -0.000000   0.000000   0.000000  -0.000000   0.000000
    40  H    0.000000   0.000000   0.000000   0.000000   0.000013  -0.000002
              13         14         15         16         17         18
     1  C    0.004075  -0.041472  -0.041669  -0.003195  -0.003184  -0.000070
     2  C   -0.000085  -0.003163  -0.003263  -0.000065  -0.000066  -0.000001
     3  C    0.000001  -0.000043  -0.000052  -0.000000  -0.000000  -0.000000
     4  H   -0.000052  -0.002802   0.004474   0.002420   0.000239  -0.000001
     5  H   -0.000052   0.004396  -0.002795   0.000239   0.002420   0.000013
     6  H   -0.000000   0.001903   0.000253   0.000017  -0.000004   0.000000
     7  H   -0.000000   0.000260   0.002411  -0.000003   0.000017  -0.000002
     8  H   -0.000000  -0.000002   0.000013   0.000000  -0.000002   0.000000
     9  H   -0.000000   0.000014  -0.000001  -0.000002   0.000000  -0.000000
    10  H   -0.000000   0.000001   0.000001   0.000000   0.000000  -0.000000
    11  C   -0.057241   0.396197   0.396019  -0.043641  -0.043545  -0.003802
    12  C    0.340596  -0.041916  -0.041861   0.399031   0.399068  -0.038873
    13  C    5.097567  -0.002948  -0.002878  -0.039989  -0.039909   0.391292
    14  H   -0.002948   0.555756  -0.031285  -0.003006   0.004500   0.000178
    15  H   -0.002878  -0.031285   0.567308   0.004578  -0.002975   0.002629
    16  H   -0.039989  -0.003006   0.004578   0.565317  -0.031667   0.004226
    17  H   -0.039909   0.004500  -0.002975  -0.031667   0.564486  -0.002891
    18  H    0.391292   0.000178   0.002629   0.004226  -0.002891   0.548786
    19  H    0.391178   0.002403   0.000165  -0.002880   0.004223  -0.029150
    20  H    0.394094  -0.000050  -0.000058  -0.002510  -0.002511  -0.027510
    21  C    0.000000   0.000014  -0.000000  -0.000000  -0.000000  -0.000000
    22  C    0.000000  -0.000000  -0.000000  -0.000000   0.000000   0.000000
    23  C   -0.000000   0.000000  -0.000000  -0.000000  -0.000000  -0.000000
    24  H   -0.000000   0.000040   0.000000   0.000000   0.000000   0.000000
    25  H    0.000000  -0.000001  -0.000000  -0.000000  -0.000000  -0.000000
    26  H   -0.000000  -0.000000   0.000000  -0.000000  -0.000000  -0.000000
    27  H    0.000000   0.000000   0.000000   0.000000  -0.000000  -0.000000
    28  H   -0.000000  -0.000000   0.000000   0.000000   0.000000   0.000000
    29  H    0.000000   0.000000   0.000000  -0.000000  -0.000000  -0.000000
    30  H   -0.000000  -0.000000  -0.000000  -0.000000   0.000000   0.000000
    31  C    0.000000   0.000006   0.000000   0.000000   0.000000   0.000000
    32  C   -0.000006  -0.000151   0.000020   0.000001  -0.000000   0.000000
    33  C   -0.000002   0.000009  -0.000002  -0.000000   0.000000  -0.000000
    34  H    0.000000   0.000001  -0.000000  -0.000000  -0.000000  -0.000000
    35  H   -0.000000   0.000000   0.000000   0.000000  -0.000000   0.000000
    36  H    0.000004   0.001152   0.000011   0.000006  -0.000000  -0.000001
    37  H    0.000000   0.000220   0.000012   0.000000   0.000000   0.000000
    38  H    0.000000  -0.000001   0.000000   0.000000  -0.000000  -0.000000
    39  H    0.000000   0.000000  -0.000000  -0.000000  -0.000000  -0.000000
    40  H    0.000002   0.000066   0.000001  -0.000000   0.000000   0.000000
              19         20         21         22         23         24
     1  C   -0.000070  -0.000087   0.000004  -0.000000  -0.000000   0.000014
     2  C   -0.000000   0.000001  -0.000265   0.000006  -0.000000  -0.000042
     3  C   -0.000000  -0.000000   0.000006  -0.000000  -0.000003  -0.000005
     4  H    0.000014   0.000001   0.000003  -0.000000  -0.000000   0.000057
     5  H   -0.000001   0.000001  -0.000000   0.000000   0.000000  -0.000000
     6  H   -0.000002   0.000000   0.000339  -0.000011   0.000003   0.000227
     7  H    0.000000   0.000000   0.000002  -0.000000  -0.000000   0.000002
     8  H   -0.000000  -0.000000   0.000000   0.000000   0.000000  -0.000000
     9  H    0.000000  -0.000000   0.000010  -0.000002   0.000006   0.000018
    10  H   -0.000000   0.000000   0.000000  -0.000000  -0.000000  -0.000001
    11  C   -0.003617   0.004387  -0.000002   0.000000  -0.000000  -0.000009
    12  C   -0.039014  -0.035831  -0.000000  -0.000000  -0.000000  -0.000000
    13  C    0.391178   0.394094   0.000000   0.000000  -0.000000  -0.000000
    14  H    0.002403  -0.000050   0.000014  -0.000000   0.000000   0.000040
    15  H    0.000165  -0.000058  -0.000000  -0.000000  -0.000000   0.000000
    16  H   -0.002880  -0.002510  -0.000000  -0.000000  -0.000000   0.000000
    17  H    0.004223  -0.002511  -0.000000   0.000000  -0.000000   0.000000
    18  H   -0.029150  -0.027510  -0.000000   0.000000  -0.000000   0.000000
    19  H    0.549601  -0.027544  -0.000000   0.000000  -0.000000  -0.000000
    20  H   -0.027544   0.537494  -0.000000  -0.000000   0.000000   0.000000
    21  C   -0.000000  -0.000000   5.087016   0.351459  -0.057435   0.396359
    22  C    0.000000  -0.000000   0.351459   5.061236   0.340636  -0.041836
    23  C   -0.000000   0.000000  -0.057435   0.340636   5.097464  -0.002852
    24  H   -0.000000   0.000000   0.396359  -0.041836  -0.002852   0.567575
    25  H    0.000000  -0.000000   0.396634  -0.041515  -0.002832  -0.032271
    26  H    0.000000   0.000000  -0.043480   0.398975  -0.039869  -0.003001
    27  H   -0.000000   0.000000  -0.043456   0.399036  -0.039859   0.004568
    28  H    0.000000   0.000000  -0.003742  -0.038930   0.391316   0.000160
    29  H   -0.000000  -0.000000  -0.003786  -0.038955   0.391219   0.002629
    30  H    0.000000   0.000000   0.004391  -0.035819   0.394140  -0.000058
    31  C    0.000000  -0.000000   0.354902  -0.051762   0.004069  -0.041694
    32  C    0.000002   0.000000  -0.051962   0.003943  -0.000085  -0.003111
    33  C    0.000005   0.000000   0.004064  -0.000082   0.000001  -0.000055
    34  H   -0.000000  -0.000000  -0.041595  -0.003354  -0.000052  -0.002821
    35  H    0.000000   0.000000  -0.041463  -0.003335  -0.000052   0.004469
    36  H    0.000089  -0.000000  -0.003173  -0.000058  -0.000001   0.002252
    37  H   -0.000001  -0.000000  -0.003172  -0.000062  -0.000000   0.000188
    38  H   -0.000000  -0.000000  -0.000068  -0.000001  -0.000000  -0.000001
    39  H   -0.000001  -0.000000  -0.000069  -0.000001  -0.000000   0.000013
    40  H    0.000033  -0.000000  -0.000087   0.000001  -0.000000   0.000001
              25         26         27         28         29         30
     1  C   -0.000000   0.000000   0.000000   0.000000  -0.000000  -0.000000
     2  C   -0.000219  -0.000000  -0.000000  -0.000003  -0.000000   0.000000
     3  C    0.000055   0.000000  -0.000000   0.000007  -0.000000   0.000000
     4  H   -0.000001   0.000000   0.000000  -0.000000   0.000000  -0.000000
     5  H   -0.000000  -0.000000   0.000000  -0.000000  -0.000000   0.000000
     6  H    0.000986   0.000000   0.000001   0.000003   0.000001  -0.000000
     7  H    0.000003   0.000000   0.000000   0.000000   0.000000   0.000000
     8  H   -0.000000   0.000000   0.000000  -0.000000  -0.000000  -0.000000
     9  H    0.000009   0.000000   0.000000   0.000012   0.000010  -0.000000
    10  H    0.000023   0.000000  -0.000000   0.000006  -0.000000  -0.000000
    11  C   -0.000002  -0.000000  -0.000000  -0.000000  -0.000000   0.000000
    12  C    0.000000   0.000000   0.000000   0.000000   0.000000  -0.000000
    13  C    0.000000  -0.000000   0.000000  -0.000000   0.000000  -0.000000
    14  H   -0.000001  -0.000000   0.000000  -0.000000   0.000000  -0.000000
    15  H   -0.000000   0.000000   0.000000   0.000000   0.000000  -0.000000
    16  H   -0.000000  -0.000000   0.000000   0.000000  -0.000000  -0.000000
    17  H   -0.000000  -0.000000  -0.000000   0.000000  -0.000000   0.000000
    18  H   -0.000000  -0.000000  -0.000000   0.000000  -0.000000   0.000000
    19  H    0.000000   0.000000  -0.000000   0.000000  -0.000000   0.000000
    20  H   -0.000000   0.000000   0.000000   0.000000  -0.000000   0.000000
    21  C    0.396634  -0.043480  -0.043456  -0.003742  -0.003786   0.004391
    22  C   -0.041515   0.398975   0.399036  -0.038930  -0.038955  -0.035819
    23  C   -0.002832  -0.039869  -0.039859   0.391316   0.391219   0.394140
    24  H   -0.032271  -0.003001   0.004568   0.000160   0.002629  -0.000058
    25  H    0.563296   0.004521  -0.003064   0.002587   0.000150  -0.000055
    26  H    0.004521   0.564086  -0.031585   0.004216  -0.002886  -0.002505
    27  H   -0.003064  -0.031585   0.563907  -0.002880   0.004220  -0.002504
    28  H    0.002587   0.004216  -0.002880   0.548124  -0.029110  -0.027440
    29  H    0.000150  -0.002886   0.004220  -0.029110   0.549099  -0.027481
    30  H   -0.000055  -0.002505  -0.002504  -0.027440  -0.027481   0.536892
    31  C   -0.041238  -0.003206  -0.003215  -0.000070  -0.000070  -0.000087
    32  C   -0.003249  -0.000065  -0.000060  -0.000001  -0.000000   0.000001
    33  C   -0.000048  -0.000001  -0.000001  -0.000000  -0.000000  -0.000000
    34  H    0.004418   0.002418   0.000242  -0.000001   0.000013   0.000001
    35  H   -0.002891   0.000244   0.002415   0.000013  -0.000001   0.000001
    36  H    0.000180   0.000017  -0.000004   0.000000  -0.000002   0.000000
    37  H    0.002036  -0.000004   0.000016  -0.000002   0.000000   0.000000
    38  H    0.000012   0.000000  -0.000002   0.000000  -0.000000  -0.000000
    39  H   -0.000002  -0.000002   0.000000  -0.000000   0.000000  -0.000000
    40  H    0.000001   0.000000   0.000000  -0.000000  -0.000000   0.000000
              31         32         33         34         35         36
     1  C   -0.000002   0.000034  -0.000000   0.000000   0.000000   0.000048
     2  C    0.000019  -0.000133   0.000003  -0.000001  -0.000001  -0.000046
     3  C    0.000000   0.000002  -0.000000   0.000000   0.000000   0.000000
     4  H   -0.000000  -0.000000  -0.000000  -0.000000   0.000000   0.000013
     5  H    0.000000  -0.000000   0.000000  -0.000000  -0.000000  -0.000001
     6  H   -0.000138   0.000163  -0.000003   0.000002   0.000003   0.000055
     7  H   -0.000000  -0.000004  -0.000000   0.000000   0.000000   0.000001
     8  H   -0.000000  -0.000000   0.000000  -0.000000  -0.000000  -0.000000
     9  H   -0.000000  -0.000000  -0.000000   0.000000   0.000000  -0.000000
    10  H   -0.000000   0.000000  -0.000000   0.000000  -0.000000  -0.000000
    11  C    0.000019  -0.000617   0.000014  -0.000000  -0.000000  -0.000576
    12  C   -0.000000   0.000009  -0.000000   0.000000   0.000000   0.000029
    13  C    0.000000  -0.000006  -0.000002   0.000000  -0.000000   0.000004
    14  H    0.000006  -0.000151   0.000009   0.000001   0.000000   0.001152
    15  H    0.000000   0.000020  -0.000002  -0.000000   0.000000   0.000011
    16  H    0.000000   0.000001  -0.000000  -0.000000   0.000000   0.000006
    17  H    0.000000  -0.000000   0.000000  -0.000000  -0.000000  -0.000000
    18  H    0.000000   0.000000  -0.000000  -0.000000   0.000000  -0.000001
    19  H    0.000000   0.000002   0.000005  -0.000000   0.000000   0.000089
    20  H   -0.000000   0.000000   0.000000  -0.000000   0.000000  -0.000000
    21  C    0.354902  -0.051962   0.004064  -0.041595  -0.041463  -0.003173
    22  C   -0.051762   0.003943  -0.000082  -0.003354  -0.003335  -0.000058
    23  C    0.004069  -0.000085   0.000001  -0.000052  -0.000052  -0.000001
    24  H   -0.041694  -0.003111  -0.000055  -0.002821   0.004469   0.002252
    25  H   -0.041238  -0.003249  -0.000048   0.004418  -0.002891   0.000180
    26  H   -0.003206  -0.000065  -0.000001   0.002418   0.000244   0.000017
    27  H   -0.003215  -0.000060  -0.000001   0.000242   0.002415  -0.000004
    28  H   -0.000070  -0.000001  -0.000000  -0.000001   0.000013   0.000000
    29  H   -0.000070  -0.000000  -0.000000   0.000013  -0.000001  -0.000002
    30  H   -0.000087   0.000001  -0.000000   0.000001   0.000001   0.000000
    31  C    5.085614   0.350104  -0.056963   0.395719   0.395670  -0.043506
    32  C    0.350104   5.068441   0.339496  -0.041459  -0.041328   0.399241
    33  C   -0.056963   0.339496   5.098268  -0.002967  -0.002969  -0.039853
    34  H    0.395719  -0.041459  -0.002967   0.567003  -0.031300  -0.003144
    35  H    0.395670  -0.041328  -0.002969  -0.031300   0.566360   0.004514
    36  H   -0.043506   0.399241  -0.039853  -0.003144   0.004514   0.562001
    37  H   -0.043386   0.400367  -0.039391   0.004522  -0.003055  -0.033122
    38  H   -0.003827  -0.038733   0.391283   0.000165   0.002637   0.004228
    39  H   -0.003838  -0.038731   0.391118   0.002647   0.000169  -0.002980
    40  H    0.004395  -0.035818   0.394099  -0.000059  -0.000061  -0.002631
              37         38         39         40
     1  C   -0.000032   0.000000   0.000000  -0.000000
     2  C   -0.000016  -0.000000  -0.000000   0.000000
     3  C   -0.000002   0.000000   0.000000  -0.000000
     4  H    0.000002   0.000000  -0.000000   0.000000
     5  H    0.000000  -0.000000  -0.000000   0.000000
     6  H    0.000725   0.000000   0.000000  -0.000000
     7  H    0.000033   0.000000   0.000000   0.000000
     8  H    0.000000  -0.000000  -0.000000   0.000000
     9  H    0.000000   0.000000   0.000000   0.000000
    10  H   -0.000000  -0.000000   0.000000   0.000000
    11  C    0.000017  -0.000000  -0.000000   0.000013
    12  C   -0.000000   0.000000   0.000000  -0.000002
    13  C    0.000000   0.000000   0.000000   0.000002
    14  H    0.000220  -0.000001   0.000000   0.000066
    15  H    0.000012   0.000000  -0.000000   0.000001
    16  H    0.000000   0.000000  -0.000000  -0.000000
    17  H    0.000000  -0.000000  -0.000000   0.000000
    18  H    0.000000  -0.000000  -0.000000   0.000000
    19  H   -0.000001  -0.000000  -0.000001   0.000033
    20  H   -0.000000  -0.000000  -0.000000  -0.000000
    21  C   -0.003172  -0.000068  -0.000069  -0.000087
    22  C   -0.000062  -0.000001  -0.000001   0.000001
    23  C   -0.000000  -0.000000  -0.000000  -0.000000
    24  H    0.000188  -0.000001   0.000013   0.000001
    25  H    0.002036   0.000012  -0.000002   0.000001
    26  H   -0.000004   0.000000  -0.000002   0.000000
    27  H    0.000016  -0.000002   0.000000   0.000000
    28  H   -0.000002   0.000000  -0.000000  -0.000000
    29  H    0.000000  -0.000000   0.000000  -0.000000
    30  H    0.000000  -0.000000  -0.000000   0.000000
    31  C   -0.043386  -0.003827  -0.003838   0.004395
    32  C    0.400367  -0.038733  -0.038731  -0.035818
    33  C   -0.039391   0.391283   0.391118   0.394099
    34  H    0.004522   0.000165   0.002647  -0.000059
    35  H   -0.003055   0.002637   0.000169  -0.000061
    36  H   -0.033122   0.004228  -0.002980  -0.002631
    37  H    0.560541  -0.002946   0.004186  -0.002476
    38  H   -0.002946   0.548167  -0.029072  -0.027400
    39  H    0.004186  -0.029072   0.548881  -0.027467
    40  H   -0.002476  -0.027400  -0.027467   0.536179
 Mulliken charges:
               1
     1  C   -0.297170
     2  C   -0.307348
     3  C   -0.475322
     4  H    0.148667
     5  H    0.149105
     6  H    0.160410
     7  H    0.150906
     8  H    0.154920
     9  H    0.155426
    10  H    0.159224
    11  C   -0.307625
    12  C   -0.299082
    13  C   -0.475644
    14  H    0.159721
    15  H    0.148945
    16  H    0.151122
    17  H    0.151800
    18  H    0.155175
    19  H    0.154568
    20  H    0.160123
    21  C   -0.301446
    22  C   -0.299569
    23  C   -0.475815
    24  H    0.149187
    25  H    0.152480
    26  H    0.152125
    27  H    0.152222
    28  H    0.155732
    29  H    0.154950
    30  H    0.160524
    31  C   -0.297515
    32  C   -0.306310
    33  C   -0.476021
    34  H    0.149602
    35  H    0.149961
    36  H    0.155257
    37  H    0.154801
    38  H    0.155558
    39  H    0.155149
    40  H    0.161210
 Sum of Mulliken charges =  -0.00000
 Mulliken charges with hydrogens summed into heavy atoms:
               1
     1  C    0.000602
     2  C    0.003968
     3  C   -0.005752
    11  C    0.001041
    12  C    0.003840
    13  C   -0.005779
    21  C    0.000221
    22  C    0.004779
    23  C   -0.004609
    31  C    0.002048
    32  C    0.003748
    33  C   -0.004105
 Electronic spatial extent (au):  <R**2>=           4660.9186
 Charge=             -0.0000 electrons
 Dipole moment (field-independent basis, Debye):
    X=             -0.0684    Y=              0.0404    Z=              0.0141  Tot=              0.0807
 Quadrupole moment (field-independent basis, Debye-Ang):
   XX=            -84.4339   YY=            -86.8576   ZZ=            -83.5680
   XY=             -0.8207   XZ=              0.1672   YZ=             -0.5853
 Traceless Quadrupole moment (field-independent basis, Debye-Ang):
   XX=              0.5193   YY=             -1.9044   ZZ=              1.3852
   XY=             -0.8207   XZ=              0.1672   YZ=             -0.5853
 Octapole moment (field-independent basis, Debye-Ang**2):
  XXX=              2.0078  YYY=              0.3063  ZZZ=              0.0165  XYY=              0.6546
  XXY=             -2.5764  XXZ=              4.2415  XZZ=             -1.3253  YZZ=              0.5808
  YYZ=             -0.7090  XYZ=              0.3106
 Hexadecapole moment (field-independent basis, Debye-Ang**3):
 XXXX=          -4013.7164 YYYY=          -2141.8779 ZZZZ=           -476.1323 XXXY=            -11.9884
 XXXZ=              4.0317 YYYX=            -11.3441 YYYZ=             -9.8160 ZZZX=             -1.2090
 ZZZY=             -1.2180 XXYY=          -1029.6311 XXZZ=           -740.5206 YYZZ=           -424.9900
 XXYZ=             -3.7421 YYXZ=              1.8423 ZZXY=             -0.1026
 N-N= 7.153781073421D+02 E-N=-2.523893748745D+03  KE= 4.702292712710D+02
 Leave Link  601 at Thu May  6 00:35:56 2021, MaxMem=   524288000 cpu:               0.6 elap:               0.6
 (Enter /opt/gaussian/g16_legacy/l9999.exe)
 1\1\GINC-TRUENO91\SP\RMP2-FC\6-31G(d)\C12H28\JRAMOS\06-May-2021\0\\#p 
 6-31g* mp2\\Input file generated by CHIRIPA (05-May-2021 14:51:10)\\0,
 1\C,0,-0.666,-0.374,0.\C,0,-1.882,0.553,0.\C,0,-3.207,-0.21,0.\H,0,-0.
 713,-1.03,-0.88\H,0,-0.713,-1.029,0.881\H,0,-1.832,1.207,-0.88\H,0,-1.
 832,1.207,0.88\H,0,-3.283,-0.85,0.885\H,0,-3.283,-0.85,-0.885\H,0,-4.0
 63,0.472,0.\C,0,0.666,0.374,0.\C,0,1.882,-0.553,0.\C,0,3.207,0.21,0.\H
 ,0,0.713,1.029,-0.881\H,0,0.713,1.03,0.88\H,0,1.832,-1.207,-0.88\H,0,1
 .832,-1.207,0.88\H,0,3.283,0.85,0.885\H,0,3.283,0.85,-0.885\H,0,4.063,
 -0.472,0.\C,0,-1.936238,2.211654,-4.113736\C,0,-2.844301,2.171694,-5.3
 43293\C,0,-3.915739,1.08475,-5.251823\H,0,-1.456358,1.2314,-3.988188\H
 ,0,-2.550863,2.375822,-3.217812\H,0,-2.227999,2.009032,-6.236785\H,0,-
 3.321928,3.152216,-5.466039\H,0,-4.554834,1.24638,-4.377733\H,0,-3.454
 689,0.096701,-5.152858\H,0,-4.553606,1.073945,-6.141131\C,0,-0.86002,3
 .293142,-4.190327\C,0,0.048043,3.333101,-2.96077\C,0,1.11948,4.420046,
 -3.05224\H,0,-0.245396,3.128974,-5.086252\H,0,-1.339901,4.273395,-4.31
 5875\H,0,0.52567,2.35258,-2.838024\H,0,-0.56826,3.495764,-2.067278\H,0
 ,0.65843,5.408094,-3.151206\H,0,1.758575,4.258415,-3.926331\H,0,1.7573
 48,4.43085,-2.162932\\Version=EM64L-G16RevA.03\State=1-A\HF=-470.73293
 59\MP2=-472.3172866\RMSD=1.980e-09\PG=C01 [X(C12H28)]\\@


 MEMORIES ARE LIKE AN ENGLISH GRAMMER LESSON -
 PRESENT TENSE, AND PAST PERFECT.
 Job cpu time:       0 days  0 hours  2 minutes 23.3 seconds.
 Elapsed time:       0 days  0 hours  1 minutes 18.4 seconds.
 File lengths (MBytes):  RWF=     26 Int=      0 D2E=      0 Chk=      5 Scr=      1
 Normal termination of Gaussian 16 at Thu May  6 00:35:56 2021.
