 Entering Gaussian System, Link 0=/opt/gaussian/g16_legacy/g16
 Input=gaussian_02667_1_1.com
 Output=gaussian_02667_1_1.log
 Initial command:
 /opt/gaussian/g16_legacy/l1.exe "/scratch-local/jramos/2594776/Gau-4495.inp" -scrdir="/scratch-local/jramos/2594776/"
 Entering Link 1 = /opt/gaussian/g16_legacy/l1.exe PID=      4496.
  
 Copyright (c) 1988,1990,1992,1993,1995,1998,2003,2009,2016,
            Gaussian, Inc.  All Rights Reserved.
  
 This is part of the Gaussian(R) 16 program.  It is based on
 the Gaussian(R) 09 system (copyright 2009, Gaussian, Inc.),
 the Gaussian(R) 03 system (copyright 2003, Gaussian, Inc.),
 the Gaussian(R) 98 system (copyright 1998, Gaussian, Inc.),
 the Gaussian(R) 94 system (copyright 1995, Gaussian, Inc.),
 the Gaussian 92(TM) system (copyright 1992, Gaussian, Inc.),
 the Gaussian 90(TM) system (copyright 1990, Gaussian, Inc.),
 the Gaussian 88(TM) system (copyright 1988, Gaussian, Inc.),
 the Gaussian 86(TM) system (copyright 1986, Carnegie Mellon
 University), and the Gaussian 82(TM) system (copyright 1983,
 Carnegie Mellon University). Gaussian is a federally registered
 trademark of Gaussian, Inc.
  
 This software contains proprietary and confidential information,
 including trade secrets, belonging to Gaussian, Inc.
  
 This software is provided under written license and may be
 used, copied, transmitted, or stored only in accord with that
 written license.
  
 The following legend is applicable only to US Government
 contracts under FAR:
  
                    RESTRICTED RIGHTS LEGEND
  
 Use, reproduction and disclosure by the US Government is
 subject to restrictions as set forth in subparagraphs (a)
 and (c) of the Commercial Computer Software - Restricted
 Rights clause in FAR 52.227-19.
  
 Gaussian, Inc.
 340 Quinnipiac St., Bldg. 40, Wallingford CT 06492
  
  
 ---------------------------------------------------------------
 Warning -- This program may not be used in any manner that
 competes with the business of Gaussian, Inc. or will provide
 assistance to any competitor of Gaussian, Inc.  The licensee
 of this program is prohibited from giving any competitor of
 Gaussian, Inc. access to this program.  By using this program,
 the user acknowledges that Gaussian, Inc. is engaged in the
 business of creating and licensing software in the field of
 computational chemistry and represents and warrants to the
 licensee that it is not a competitor of Gaussian, Inc. and that
 it will not use this program in any manner prohibited above.
 ---------------------------------------------------------------
  

 Cite this work as:
 Gaussian 16, Revision A.03,
 M. J. Frisch, G. W. Trucks, H. B. Schlegel, G. E. Scuseria, 
 M. A. Robb, J. R. Cheeseman, G. Scalmani, V. Barone, 
 G. A. Petersson, H. Nakatsuji, X. Li, M. Caricato, A. V. Marenich, 
 J. Bloino, B. G. Janesko, R. Gomperts, B. Mennucci, H. P. Hratchian, 
 J. V. Ortiz, A. F. Izmaylov, J. L. Sonnenberg, D. Williams-Young, 
 F. Ding, F. Lipparini, F. Egidi, J. Goings, B. Peng, A. Petrone, 
 T. Henderson, D. Ranasinghe, V. G. Zakrzewski, J. Gao, N. Rega, 
 G. Zheng, W. Liang, M. Hada, M. Ehara, K. Toyota, R. Fukuda, 
 J. Hasegawa, M. Ishida, T. Nakajima, Y. Honda, O. Kitao, H. Nakai, 
 T. Vreven, K. Throssell, J. A. Montgomery, Jr., J. E. Peralta, 
 F. Ogliaro, M. J. Bearpark, J. J. Heyd, E. N. Brothers, K. N. Kudin, 
 V. N. Staroverov, T. A. Keith, R. Kobayashi, J. Normand, 
 K. Raghavachari, A. P. Rendell, J. C. Burant, S. S. Iyengar, 
 J. Tomasi, M. Cossi, J. M. Millam, M. Klene, C. Adamo, R. Cammi, 
 J. W. Ochterski, R. L. Martin, K. Morokuma, O. Farkas, 
 J. B. Foresman, and D. J. Fox, Gaussian, Inc., Wallingford CT, 2016.
 
 ******************************************
 Gaussian 16:  EM64L-G16RevA.03 25-Dec-2016
                 6-May-2021 
 ******************************************
 %chk=gaussian_02667_1_1.chk
 %nproc=2
 Will use up to    2 processors via shared memory.
 %mem=4000Mb
 -------------
 #p 6-31g* mp2
 -------------
 1/38=1,172=1/1;
 2/12=2,17=6,18=5,40=1/2;
 3/5=1,6=6,7=1,11=9,25=1,30=1/1,2,3;
 4//1;
 5/5=2,38=5/2;
 8/10=2/1;
 9/16=-3/6;
 6/7=2,8=2,9=2,10=2/1;
 99/5=1,9=1/99;
 Leave Link    1 at Thu May  6 07:00:21 2021, MaxMem=   524288000 cpu:               0.1 elap:               0.1
 (Enter /opt/gaussian/g16_legacy/l101.exe)
 ------------------------------------------------------
 Input file generated by CHIRIPA (05-May-2021 14:51:11)
 ------------------------------------------------------
 Symbolic Z-matrix:
 Charge =  0 Multiplicity = 1
 C                    -0.666    -0.374     0. 
 C                    -1.882     0.553     0. 
 C                    -3.207    -0.21      0. 
 H                    -0.713    -1.03     -0.88 
 H                    -0.713    -1.029     0.881 
 H                    -1.832     1.207    -0.88 
 H                    -1.832     1.207     0.88 
 H                    -3.283    -0.85      0.885 
 H                    -3.283    -0.85     -0.885 
 H                    -4.063     0.472     0. 
 C                     0.666     0.374     0. 
 C                     1.882    -0.553     0. 
 C                     3.207     0.21      0. 
 H                     0.713     1.029    -0.881 
 H                     0.713     1.03      0.88 
 H                     1.832    -1.207    -0.88 
 H                     1.832    -1.207     0.88 
 H                     3.283     0.85      0.885 
 H                     3.283     0.85     -0.885 
 H                     4.063    -0.472     0. 
 C                    -0.40818  -2.97461  -3.78229 
 C                     0.61297  -3.67502  -2.88525 
 C                    -0.04171  -4.53861  -1.80664 
 H                    -1.06614  -2.35162  -3.16106 
 H                    -1.04946  -3.73082  -4.25589 
 H                     1.25302  -2.9178   -2.41455 
 H                     1.26869  -4.29627  -3.50871 
 H                    -0.66569  -5.31505  -2.26093 
 H                    -0.68145  -3.92875  -1.16056 
 H                     0.70647  -5.03     -1.17685 
 C                     0.23099  -2.10754  -4.86551 
 C                    -0.79016  -1.40713  -5.76255 
 C                    -0.13548  -0.54354  -6.84116 
 H                     0.87227  -1.35134  -4.3919 
 H                     0.88894  -2.73053  -5.48674 
 H                    -1.44588  -0.78588  -5.13909 
 H                    -1.43022  -2.16435  -6.23325 
 H                     0.50425  -1.1534   -7.48724 
 H                     0.4885    0.2329   -6.38687 
 H                    -0.88366  -0.05216  -7.47095 
 
 ITRead=  0  0  0  0  0  0  0  0  0  0  0  0  0  0  0  0  0  0  0  0
 ITRead=  0  0  0  0  0  0  0  0  0  0  0  0  0  0  0  0  0  0  0  0
 MicOpt= -1 -1 -1 -1 -1 -1 -1 -1 -1 -1 -1 -1 -1 -1 -1 -1 -1 -1 -1 -1
 MicOpt= -1 -1 -1 -1 -1 -1 -1 -1 -1 -1 -1 -1 -1 -1 -1 -1 -1 -1 -1 -1
 NAtoms=     40 NQM=       40 NQMF=       0 NMMI=      0 NMMIF=      0
                NMic=       0 NMicF=      0.
                    Isotopes and Nuclear Properties:
 (Nuclear quadrupole moments (NQMom) in fm**2, nuclear magnetic moments (NMagM)
  in nuclear magnetons)

  Atom         1           2           3           4           5           6           7           8           9          10
 IAtWgt=          12          12          12           1           1           1           1           1           1           1
 AtmWgt=  12.0000000  12.0000000  12.0000000   1.0078250   1.0078250   1.0078250   1.0078250   1.0078250   1.0078250   1.0078250
 NucSpn=           0           0           0           1           1           1           1           1           1           1
 AtZEff=  -0.0000000  -0.0000000  -0.0000000  -0.0000000  -0.0000000  -0.0000000  -0.0000000  -0.0000000  -0.0000000  -0.0000000
 NQMom=    0.0000000   0.0000000   0.0000000   0.0000000   0.0000000   0.0000000   0.0000000   0.0000000   0.0000000   0.0000000
 NMagM=    0.0000000   0.0000000   0.0000000   2.7928460   2.7928460   2.7928460   2.7928460   2.7928460   2.7928460   2.7928460
 AtZNuc=   6.0000000   6.0000000   6.0000000   1.0000000   1.0000000   1.0000000   1.0000000   1.0000000   1.0000000   1.0000000

  Atom        11          12          13          14          15          16          17          18          19          20
 IAtWgt=          12          12          12           1           1           1           1           1           1           1
 AtmWgt=  12.0000000  12.0000000  12.0000000   1.0078250   1.0078250   1.0078250   1.0078250   1.0078250   1.0078250   1.0078250
 NucSpn=           0           0           0           1           1           1           1           1           1           1
 AtZEff=  -0.0000000  -0.0000000  -0.0000000  -0.0000000  -0.0000000  -0.0000000  -0.0000000  -0.0000000  -0.0000000  -0.0000000
 NQMom=    0.0000000   0.0000000   0.0000000   0.0000000   0.0000000   0.0000000   0.0000000   0.0000000   0.0000000   0.0000000
 NMagM=    0.0000000   0.0000000   0.0000000   2.7928460   2.7928460   2.7928460   2.7928460   2.7928460   2.7928460   2.7928460
 AtZNuc=   6.0000000   6.0000000   6.0000000   1.0000000   1.0000000   1.0000000   1.0000000   1.0000000   1.0000000   1.0000000

  Atom        21          22          23          24          25          26          27          28          29          30
 IAtWgt=          12          12          12           1           1           1           1           1           1           1
 AtmWgt=  12.0000000  12.0000000  12.0000000   1.0078250   1.0078250   1.0078250   1.0078250   1.0078250   1.0078250   1.0078250
 NucSpn=           0           0           0           1           1           1           1           1           1           1
 AtZEff=  -0.0000000  -0.0000000  -0.0000000  -0.0000000  -0.0000000  -0.0000000  -0.0000000  -0.0000000  -0.0000000  -0.0000000
 NQMom=    0.0000000   0.0000000   0.0000000   0.0000000   0.0000000   0.0000000   0.0000000   0.0000000   0.0000000   0.0000000
 NMagM=    0.0000000   0.0000000   0.0000000   2.7928460   2.7928460   2.7928460   2.7928460   2.7928460   2.7928460   2.7928460
 AtZNuc=   6.0000000   6.0000000   6.0000000   1.0000000   1.0000000   1.0000000   1.0000000   1.0000000   1.0000000   1.0000000

  Atom        31          32          33          34          35          36          37          38          39          40
 IAtWgt=          12          12          12           1           1           1           1           1           1           1
 AtmWgt=  12.0000000  12.0000000  12.0000000   1.0078250   1.0078250   1.0078250   1.0078250   1.0078250   1.0078250   1.0078250
 NucSpn=           0           0           0           1           1           1           1           1           1           1
 AtZEff=  -0.0000000  -0.0000000  -0.0000000  -0.0000000  -0.0000000  -0.0000000  -0.0000000  -0.0000000  -0.0000000  -0.0000000
 NQMom=    0.0000000   0.0000000   0.0000000   0.0000000   0.0000000   0.0000000   0.0000000   0.0000000   0.0000000   0.0000000
 NMagM=    0.0000000   0.0000000   0.0000000   2.7928460   2.7928460   2.7928460   2.7928460   2.7928460   2.7928460   2.7928460
 AtZNuc=   6.0000000   6.0000000   6.0000000   1.0000000   1.0000000   1.0000000   1.0000000   1.0000000   1.0000000   1.0000000
 Leave Link  101 at Thu May  6 07:00:21 2021, MaxMem=   524288000 cpu:               0.2 elap:               0.1
 (Enter /opt/gaussian/g16_legacy/l202.exe)
                          Input orientation:                          
 ---------------------------------------------------------------------
 Center     Atomic      Atomic             Coordinates (Angstroms)
 Number     Number       Type             X           Y           Z
 ---------------------------------------------------------------------
      1          6           0       -0.666000   -0.374000    0.000000
      2          6           0       -1.882000    0.553000    0.000000
      3          6           0       -3.207000   -0.210000    0.000000
      4          1           0       -0.713000   -1.030000   -0.880000
      5          1           0       -0.713000   -1.029000    0.881000
      6          1           0       -1.832000    1.207000   -0.880000
      7          1           0       -1.832000    1.207000    0.880000
      8          1           0       -3.283000   -0.850000    0.885000
      9          1           0       -3.283000   -0.850000   -0.885000
     10          1           0       -4.063000    0.472000    0.000000
     11          6           0        0.666000    0.374000    0.000000
     12          6           0        1.882000   -0.553000    0.000000
     13          6           0        3.207000    0.210000    0.000000
     14          1           0        0.713000    1.029000   -0.881000
     15          1           0        0.713000    1.030000    0.880000
     16          1           0        1.832000   -1.207000   -0.880000
     17          1           0        1.832000   -1.207000    0.880000
     18          1           0        3.283000    0.850000    0.885000
     19          1           0        3.283000    0.850000   -0.885000
     20          1           0        4.063000   -0.472000    0.000000
     21          6           0       -0.408180   -2.974612   -3.782286
     22          6           0        0.612966   -3.675023   -2.885252
     23          6           0       -0.041711   -4.538610   -1.806637
     24          1           0       -1.066137   -2.351620   -3.161061
     25          1           0       -1.049463   -3.730817   -4.255895
     26          1           0        1.253021   -2.917800   -2.414551
     27          1           0        1.268689   -4.296270   -3.508706
     28          1           0       -0.665690   -5.315054   -2.260934
     29          1           0       -0.681447   -3.928752   -1.160562
     30          1           0        0.706468   -5.029995   -1.176852
     31          6           0        0.230986   -2.107540   -4.865513
     32          6           0       -0.790161   -1.407129   -5.762547
     33          6           0       -0.135484   -0.543542   -6.841162
     34          1           0        0.872268   -1.351335   -4.391904
     35          1           0        0.888942   -2.730532   -5.486737
     36          1           0       -1.445884   -0.785882   -5.139093
     37          1           0       -1.430216   -2.164352   -6.233248
     38          1           0        0.504252   -1.153401   -7.487236
     39          1           0        0.488495    0.232902   -6.386865
     40          1           0       -0.883663   -0.052157   -7.470947
 ---------------------------------------------------------------------
                    Distance matrix (angstroms):
                    1          2          3          4          5
     1  C    0.000000
     2  C    1.529047   0.000000
     3  C    2.546287   1.528985   0.000000
     4  H    1.098610   2.155655   2.768905   0.000000
     5  H    1.098815   2.155330   2.768927   1.761000   0.000000
     6  H    2.152561   1.097550   2.161692   2.501266   3.058264
     7  H    2.152561   1.097550   2.161692   3.058420   2.500372
     8  H    2.803300   2.171275   1.094806   3.122903   2.576229
     9  H    2.803300   2.171275   1.094806   2.576301   3.123411
    10  H    3.500761   2.182504   1.094468   3.775302   3.775137
    11  C    1.527654   2.554280   3.916782   2.155750   2.155507
    12  C    2.554280   3.923128   5.100546   2.781358   2.781504
    13  C    3.916782   5.100546   6.427736   4.204569   4.204484
    14  H    2.155507   2.781504   4.204484   2.504587   3.061615
    15  H    2.155750   2.781358   4.204569   3.061809   2.504587
    16  H    2.776381   4.203070   5.211519   2.551148   3.099973
    17  H    2.776381   4.203070   5.211519   3.099347   2.551217
    18  H    4.228002   5.248682   6.635279   4.755801   4.415730
    19  H    4.228002   5.248682   6.635279   4.416157   4.755777
    20  H    4.730015   6.032715   7.274720   4.888347   4.888413
    21  C    4.597319   5.377907   5.457303   3.506807   5.062070
    22  C    4.566967   5.694358   5.909586   3.574265   4.790019
    23  C    4.582319   5.707459   5.658609   3.690478   4.471173
    24  H    3.750120   4.369755   4.377458   2.659817   4.267586
    25  H    5.433959   6.095642   5.929904   4.336391   5.813838
    26  H    3.997952   5.263541   5.749263   3.127919   4.277086
    27  H    5.606981   6.764117   7.002886   4.637425   5.819937
    28  H    5.433768   6.405099   6.134465   4.502322   5.314532
    29  H    3.739439   4.782712   4.642676   2.912469   3.546482
    30  H    4.994691   6.265380   6.319222   4.254759   4.717797
    31  C    5.242419   5.934341   6.252489   4.235152   5.922564
    32  C    5.855742   6.183944   6.362482   4.897698   6.654747
    33  C    6.863796   7.145224   7.506461   6.008795   7.758929
    34  H    4.755026   5.522799   6.101794   3.866497   5.515477
    35  H    6.170524   6.968786   7.296171   5.165274   6.783031
    36  H    5.214225   5.328516   5.462916   4.328578   6.069411
    37  H    6.530143   6.814799   6.769774   5.518915   7.239886
    38  H    7.618114   8.041437   8.409643   6.719561   8.457219
    39  H    6.518683   6.820099   7.392218   5.776164   7.473811
    40  H    7.481043   7.561610   7.825462   6.665275   8.410610
                    6          7          8          9         10
     6  H    0.000000
     7  H    1.760000   0.000000
     8  H    3.074390   2.517275   0.000000
     9  H    2.517275   3.074390   1.770000   0.000000
    10  H    2.508383   2.508383   1.771810   1.771810   0.000000
    11  C    2.776381   2.776381   4.228002   4.228002   4.730015
    12  C    4.203070   4.203070   5.248682   5.248682   6.032715
    13  C    5.211519   5.211519   6.635279   6.635279   7.274720
    14  H    2.551217   3.099973   4.755777   4.415730   4.888413
    15  H    3.099347   2.551148   4.416157   4.755801   4.888347
    16  H    4.387743   4.727567   5.422721   5.127446   6.192291
    17  H    4.727567   4.387743   5.127446   5.422721   6.192291
    18  H    5.422721   5.127446   6.782504   7.009654   7.408767
    19  H    5.127446   5.422721   7.009654   6.782504   7.408767
    20  H    6.192291   6.192291   7.408767   7.408767   8.180649
    21  C    5.285490   6.422620   5.878956   4.601395   6.288285
    22  C    5.816618   6.632430   6.113437   5.211556   6.883832
    23  C    6.088992   6.590538   5.599706   4.996120   6.673898
    24  H    4.295761   5.438795   4.851799   3.514228   5.190985
    25  H    6.032501   7.167414   6.302110   4.964950   6.697590
    26  H    5.374586   6.114360   5.978154   5.214481   6.751361
    27  H    6.841809   7.691618   7.204117   6.283190   7.967078
    28  H    6.767898   7.332321   6.056725   5.355391   7.081210
    29  H    5.270525   5.644786   4.520079   4.040139   5.669958
    30  H    6.740330   7.040921   6.135100   5.785619   7.375958
    31  C    5.579104   6.946438   6.855502   5.456555   6.983234
    32  C    5.635456   7.214051   7.121413   5.505915   6.888363
    33  C    6.440343   8.096845   8.348314   6.743637   7.953503
    34  H    5.117774   6.453768   6.735229   5.460400   6.853484
    35  H    6.643020   7.965113   7.844777   6.489798   8.054950
    36  H    4.718107   6.352176   6.298317   4.634265   5.902698
    37  H    6.339141   7.881988   7.471933   5.810687   7.261906
    38  H    7.394940   9.002233   9.194002   7.617404   8.919665
    39  H    6.054678   7.690311   8.262982   6.757764   7.846357
    40  H    6.776828   8.498420   8.730133   7.054649   8.136214
                   11         12         13         14         15
    11  C    0.000000
    12  C    1.529047   0.000000
    13  C    2.546287   1.528985   0.000000
    14  H    1.098815   2.155330   2.768927   0.000000
    15  H    1.098610   2.155655   2.768905   1.761000   0.000000
    16  H    2.152561   1.097550   2.161692   2.500372   3.058420
    17  H    2.152561   1.097550   2.161692   3.058264   2.501266
    18  H    2.803300   2.171275   1.094806   3.123411   2.576301
    19  H    2.803300   2.171275   1.094806   2.576229   3.122903
    20  H    3.500761   2.182504   1.094468   3.775137   3.775302
    21  C    5.164567   5.041311   6.125110   5.069853   6.247469
    22  C    4.972130   4.436457   5.490637   5.114183   6.026970
    23  C    5.281906   4.780135   6.030535   5.694267   6.228726
    24  H    4.519028   4.681757   5.900331   4.448887   5.561552
    25  H    6.156702   6.066683   7.194453   6.095248   7.221431
    26  H    4.124391   3.437725   4.408086   4.268563   5.170185
    27  H    5.872450   5.167131   6.031131   5.964238   6.923777
    28  H    6.265026   5.854887   7.115882   6.637170   7.212903
    29  H    4.655770   4.394754   5.796222   5.157707   5.540541
    30  H    5.530803   4.776017   5.924119   6.066217   6.399549
    31  C    5.479096   5.368022   6.156368   5.093777   6.564100
    32  C    6.204819   6.409129   7.197177   5.658950   7.233431
    33  C    6.948795   7.132449   7.651243   6.222246   7.925421
    34  H    4.723150   4.576649   5.213210   4.244739   5.786976
    35  H    6.308098   5.985991   6.642620   5.947928   7.396479
    36  H    5.675884   6.126934   7.003670   5.107439   6.647382
    37  H    7.049165   7.240208   8.123712   6.590708   8.086752
    38  H    7.643155   7.636581   8.076039   6.960518   8.649940
    39  H    6.390889   6.584189   6.941386   5.567650   7.313897
    40  H    7.641866   7.982154   8.521578   6.866268   8.570806
                   16         17         18         19         20
    16  H    0.000000
    17  H    1.760000   0.000000
    18  H    3.074390   2.517275   0.000000
    19  H    2.517275   3.074390   1.770000   0.000000
    20  H    2.508383   2.508383   1.771810   1.771810   0.000000
    21  C    4.070150   5.466239   7.073615   6.053655   6.368689
    22  C    3.405616   4.664151   6.466816   5.621915   5.521483
    23  C    3.933074   4.672091   6.880097   6.398456   6.053917
    24  H    3.861683   5.102894   6.748035   5.860530   6.311365
    25  H    5.105796   6.407019   8.135289   7.149619   7.407416
    26  H    2.370000   3.757142   5.404088   4.544960   4.439367
    27  H    4.095242   5.396448   7.060184   6.117628   5.894424
    28  H    5.002154   5.742824   7.968497   7.449378   7.136351
    29  H    3.715382   4.229568   6.537403   6.215243   5.983796
    30  H    3.996278   4.484724   6.742707   6.426355   5.781575
    31  C    4.388454   6.032009   7.150541   5.822913   6.405665
    32  C    5.545723   7.144173   8.116351   6.743570   7.591745
    33  C    6.312418   7.995468   8.562802   7.007414   8.027072
    34  H    3.643541   5.360493   6.205096   4.791230   5.499347
    35  H    4.942928   6.614064   7.690953   6.302992   6.729034
    36  H    5.390894   6.866684   7.831229   6.567782   7.540332
    37  H    6.341596   7.883963   9.053738   7.739798   8.478966
    38  H    6.739537   8.472097   9.045960   7.438049   8.317914
    39  H    5.848409   7.528987   7.814735   6.201660   7.352960
    40  H    7.221431   8.857020   9.380662   7.845360   8.969994
                   21         22         23         24         25
    21  C    0.000000
    22  C    1.529047   0.000000
    23  C    2.546287   1.528985   0.000000
    24  H    1.098611   2.155656   2.768906   0.000000
    25  H    1.098815   2.155330   2.768927   1.761001   0.000000
    26  H    2.152560   1.097550   2.161693   2.501266   3.058264
    27  H    2.152560   1.097550   2.161693   3.058420   2.500371
    28  H    2.803300   2.171275   1.094806   3.122904   2.576229
    29  H    2.803301   2.171276   1.094807   2.576301   3.123412
    30  H    3.500761   2.182504   1.094468   3.775302   3.775137
    31  C    1.527654   2.554280   3.916783   2.155750   2.155507
    32  C    2.554280   3.923128   5.100546   2.781359   2.781504
    33  C    3.916783   5.100546   6.427737   4.204569   4.204484
    34  H    2.155507   2.781504   4.204484   2.504587   3.061614
    35  H    2.155749   2.781358   4.204569   3.061809   2.504587
    36  H    2.776381   4.203070   5.211519   2.551148   3.099973
    37  H    2.776381   4.203070   5.211519   3.099348   2.551217
    38  H    4.228001   5.248681   6.635278   4.755801   4.415730
    39  H    4.228002   5.248682   6.635279   4.416157   4.755777
    40  H    4.730016   6.032715   7.274720   4.888348   4.888414
                   26         27         28         29         30
    26  H    0.000000
    27  H    1.760000   0.000000
    28  H    3.074390   2.517276   0.000000
    29  H    2.517276   3.074391   1.770000   0.000000
    30  H    2.508383   2.508384   1.771810   1.771810   0.000000
    31  C    2.776381   2.776381   4.228003   4.228003   4.730015
    32  C    4.203070   4.203070   5.248682   5.248682   6.032715
    33  C    5.211519   5.211519   6.635279   6.635280   7.274720
    34  H    2.551217   3.099973   4.755777   4.415731   4.888414
    35  H    3.099347   2.551147   4.416157   4.755801   4.888347
    36  H    4.387743   4.727567   5.422721   5.127446   6.192291
    37  H    4.727567   4.387743   5.127446   5.422721   6.192291
    38  H    5.422720   5.127445   6.782503   7.009655   7.408766
    39  H    5.127446   5.422721   7.009655   6.782505   7.408767
    40  H    6.192291   6.192291   7.408767   7.408768   8.180649
                   31         32         33         34         35
    31  C    0.000000
    32  C    1.529048   0.000000
    33  C    2.546287   1.528985   0.000000
    34  H    1.098815   2.155330   2.768927   0.000000
    35  H    1.098610   2.155656   2.768906   1.761000   0.000000
    36  H    2.152561   1.097550   2.161693   2.500371   3.058420
    37  H    2.152561   1.097550   2.161693   3.058264   2.501266
    38  H    2.803299   2.171275   1.094807   3.123411   2.576301
    39  H    2.803300   2.171275   1.094806   2.576229   3.122904
    40  H    3.500761   2.182504   1.094468   3.775137   3.775303
                   36         37         38         39         40
    36  H    0.000000
    37  H    1.760000   0.000000
    38  H    3.074390   2.517275   0.000000
    39  H    2.517276   3.074390   1.770000   0.000000
    40  H    2.508384   2.508383   1.771810   1.771810   0.000000
 Stoichiometry    C12H28
 Framework group  C1[X(C12H28)]
 Deg. of freedom   114
 Full point group                 C1      NOp   1
 Largest Abelian subgroup         C1      NOp   1
 Largest concise Abelian subgroup C1      NOp   1
                         Standard orientation:                         
 ---------------------------------------------------------------------
 Center     Atomic      Atomic             Coordinates (Angstroms)
 Number     Number       Type             X           Y           Z
 ---------------------------------------------------------------------
      1          6           0        2.304009    0.739138    0.097660
      2          6           0        2.562742    2.149859   -0.432347
      3          6           0        2.231529    3.236016    0.591545
      4          1           0        1.250276    0.654160    0.396609
      5          1           0        2.900555    0.581421    1.006865
      6          1           0        1.966940    2.304381   -1.341060
      7          1           0        3.615936    2.231429   -0.730248
      8          1           0        2.835535    3.109970    1.495918
      9          1           0        1.177170    3.183336    0.881636
     10          1           0        2.423844    4.236578    0.191858
     11          6           0        2.630391   -0.357598   -0.914453
     12          6           0        2.371658   -1.768320   -0.384446
     13          6           0        2.702870   -2.854477   -1.408339
     14          1           0        2.033845   -0.199882   -1.823658
     15          1           0        3.684123   -0.272621   -1.213403
     16          1           0        1.318464   -1.849890   -0.086545
     17          1           0        2.967460   -1.922842    0.524266
     18          1           0        3.757230   -2.801797   -1.698429
     19          1           0        2.098865   -2.728430   -2.312712
     20          1           0        2.510555   -3.855039   -1.008652
     21          6           0       -2.125912   -0.014711    1.068667
     22          6           0       -1.475739   -1.216705    1.754575
     23          6           0       -0.797068   -0.848522    3.074287
     24          1           0       -1.361889    0.753739    0.887835
     25          1           0       -2.863751    0.432186    1.749309
     26          1           0       -0.740335   -1.662036    1.072315
     27          1           0       -2.241361   -1.982461    1.933622
     28          1           0       -1.522932   -0.424294    3.775538
     29          1           0       -0.013378   -0.102048    2.909337
     30          1           0       -0.338886   -1.722524    3.547626
     31          6           0       -2.808488   -0.366829   -0.251874
     32          6           0       -3.458660    0.835166   -0.937781
     33          6           0       -4.137332    0.466983   -2.257494
     34          1           0       -2.070649   -0.813725   -0.932515
     35          1           0       -3.572510   -1.135279   -0.071041
     36          1           0       -2.693039    1.600922   -1.116829
     37          1           0       -4.194065    1.280496   -0.255522
     38          1           0       -4.921021   -0.279491   -2.092543
     39          1           0       -3.411468    0.042755   -2.958745
     40          1           0       -4.595514    1.340985   -2.730833
 ---------------------------------------------------------------------
 Rotational constants (GHZ):           0.6043453           0.3254248           0.3053259
 Leave Link  202 at Thu May  6 07:00:21 2021, MaxMem=   524288000 cpu:               0.1 elap:               0.1
 (Enter /opt/gaussian/g16_legacy/l301.exe)
 Standard basis: 6-31G(d) (6D, 7F)
 Ernie: Thresh=  0.10000D-02 Tol=  0.10000D-05 Strict=F.
 There are   236 symmetry adapted cartesian basis functions of A   symmetry.
 There are   236 symmetry adapted basis functions of A   symmetry.
   236 basis functions,   448 primitive gaussians,   236 cartesian basis functions
    50 alpha electrons       50 beta electrons
       nuclear repulsion energy       717.0927884138 Hartrees.
 IExCor=    0 DFT=F Ex=HF Corr=None ExCW=0 ScaHFX=  1.000000
 ScaDFX=  1.000000  1.000000  1.000000  1.000000 ScalE2=  1.000000  1.000000
 IRadAn=      5 IRanWt=     -1 IRanGd=            0 ICorTp=0 IEmpDi=  4
 NAtoms=   40 NActive=   40 NUniq=   40 SFac= 1.00D+00 NAtFMM=   60 NAOKFM=F Big=F
 Integral buffers will be    131072 words long.
 Raffenetti 1 integral format.
 Two-electron integral symmetry is turned on.
 Leave Link  301 at Thu May  6 07:00:21 2021, MaxMem=   524288000 cpu:               0.1 elap:               0.1
 (Enter /opt/gaussian/g16_legacy/l302.exe)
 NPDir=0 NMtPBC=     1 NCelOv=     1 NCel=       1 NClECP=     1 NCelD=      1
         NCelK=      1 NCelE2=     1 NClLst=     1 CellRange=     0.0.
 One-electron integrals computed using PRISM.
 One-electron integral symmetry used in STVInt
 NBasis=   236 RedAO= T EigKep=  3.18D-03  NBF=   236
 NBsUse=   236 1.00D-06 EigRej= -1.00D+00 NBFU=   236
 Leave Link  302 at Thu May  6 07:00:22 2021, MaxMem=   524288000 cpu:               0.5 elap:               0.4
 (Enter /opt/gaussian/g16_legacy/l303.exe)
 DipDrv:  MaxL=1.
 Leave Link  303 at Thu May  6 07:00:22 2021, MaxMem=   524288000 cpu:               0.1 elap:               0.1
 (Enter /opt/gaussian/g16_legacy/l401.exe)
 ExpMin= 1.61D-01 ExpMax= 3.05D+03 ExpMxC= 4.57D+02 IAcc=3 IRadAn=         5 AccDes= 0.00D+00
 Harris functional with IExCor=  205 and IRadAn=       5 diagonalized for initial guess.
 HarFok:  IExCor=  205 AccDes= 0.00D+00 IRadAn=         5 IDoV= 1 UseB2=F ITyADJ=14
 ICtDFT=  3500011 ScaDFX=  1.000000  1.000000  1.000000  1.000000
 FoFCou: FMM=F IPFlag=           0 FMFlag=      100000 FMFlg1=           0
         NFxFlg=           0 DoJE=T BraDBF=F KetDBF=T FulRan=T
         wScrn=  0.000000 ICntrl=       500 IOpCl=  0 I1Cent=   200000004 NGrid=           0
         NMat0=    1 NMatS0=      1 NMatT0=    0 NMatD0=    1 NMtDS0=    0 NMtDT0=    0
 Petite list used in FoFCou.
 Harris En= -472.098924043696    
 JPrj=0 DoOrth=F DoCkMO=F.
 Leave Link  401 at Thu May  6 07:00:28 2021, MaxMem=   524288000 cpu:              11.4 elap:               5.9
 (Enter /opt/gaussian/g16_legacy/l502.exe)
 Keep R1 ints in memory in canonical form, NReq=397720540.
 FoFCou: FMM=F IPFlag=           0 FMFlag=           0 FMFlg1=           0
         NFxFlg=           0 DoJE=F BraDBF=F KetDBF=F FulRan=T
         wScrn=  0.000000 ICntrl=       600 IOpCl=  0 I1Cent=           0 NGrid=           0
         NMat0=    1 NMatS0=  27966 NMatT0=    0 NMatD0=    1 NMtDS0=    0 NMtDT0=    0
 Symmetry not used in FoFCou.
 Two-electron integral symmetry not used.
 Closed shell SCF:
 Using DIIS extrapolation, IDIIS=  1040.
 NGot=   524288000 LenX=   133109463 LenY=   133053326
 Requested convergence on RMS density matrix=1.00D-08 within 128 cycles.
 Requested convergence on MAX density matrix=1.00D-06.
 Requested convergence on             energy=1.00D-06.
 No special actions if energy rises.

 Cycle   1  Pass 1  IDiag  1:
 E= -469.872091100711    
 DIIS: error= 5.15D-02 at cycle   1 NSaved=   1.
 NSaved= 1 IEnMin= 1 EnMin= -469.872091100711     IErMin= 1 ErrMin= 5.15D-02
 ErrMax= 5.15D-02  0.00D+00 EMaxC= 1.00D-01 BMatC= 1.07D+00 BMatP= 1.07D+00
 IDIUse=3 WtCom= 4.85D-01 WtEn= 5.15D-01
 Coeff-Com:  0.100D+01
 Coeff-En:   0.100D+01
 Coeff:      0.100D+01
 Gap=     0.600 Goal=   None    Shift=    0.000
 GapD=    0.600 DampG=2.000 DampE=0.500 DampFc=1.0000 IDamp=-1.
 RMSDP=4.72D-03 MaxDP=1.17D-01              OVMax= 1.34D-01

 Cycle   2  Pass 1  IDiag  1:
 E= -470.595973005845     Delta-E=       -0.723881905134 Rises=F Damp=F
 DIIS: error= 1.87D-02 at cycle   2 NSaved=   2.
 NSaved= 2 IEnMin= 2 EnMin= -470.595973005845     IErMin= 2 ErrMin= 1.87D-02
 ErrMax= 1.87D-02  0.00D+00 EMaxC= 1.00D-01 BMatC= 1.46D-01 BMatP= 1.07D+00
 IDIUse=3 WtCom= 8.13D-01 WtEn= 1.87D-01
 Coeff-Com:  0.219D+00 0.781D+00
 Coeff-En:   0.000D+00 0.100D+01
 Coeff:      0.178D+00 0.822D+00
 Gap=     0.655 Goal=   None    Shift=    0.000
 RMSDP=1.72D-03 MaxDP=3.31D-02 DE=-7.24D-01 OVMax= 4.78D-02

 Cycle   3  Pass 1  IDiag  1:
 E= -470.727702500361     Delta-E=       -0.131729494516 Rises=F Damp=F
 DIIS: error= 4.01D-03 at cycle   3 NSaved=   3.
 NSaved= 3 IEnMin= 3 EnMin= -470.727702500361     IErMin= 3 ErrMin= 4.01D-03
 ErrMax= 4.01D-03  0.00D+00 EMaxC= 1.00D-01 BMatC= 4.68D-03 BMatP= 1.46D-01
 IDIUse=3 WtCom= 9.60D-01 WtEn= 4.01D-02
 Coeff-Com: -0.263D-01 0.102D+00 0.924D+00
 Coeff-En:   0.000D+00 0.000D+00 0.100D+01
 Coeff:     -0.252D-01 0.983D-01 0.927D+00
 Gap=     0.628 Goal=   None    Shift=    0.000
 RMSDP=2.75D-04 MaxDP=7.11D-03 DE=-1.32D-01 OVMax= 9.41D-03

 Cycle   4  Pass 1  IDiag  1:
 E= -470.733031005585     Delta-E=       -0.005328505224 Rises=F Damp=F
 DIIS: error= 5.73D-04 at cycle   4 NSaved=   4.
 NSaved= 4 IEnMin= 4 EnMin= -470.733031005585     IErMin= 4 ErrMin= 5.73D-04
 ErrMax= 5.73D-04  0.00D+00 EMaxC= 1.00D-01 BMatC= 6.33D-05 BMatP= 4.68D-03
 IDIUse=3 WtCom= 9.94D-01 WtEn= 5.73D-03
 Coeff-Com:  0.116D-02-0.213D-01-0.867D-01 0.111D+01
 Coeff-En:   0.000D+00 0.000D+00 0.000D+00 0.100D+01
 Coeff:      0.115D-02-0.212D-01-0.862D-01 0.111D+01
 Gap=     0.629 Goal=   None    Shift=    0.000
 RMSDP=6.10D-05 MaxDP=1.06D-03 DE=-5.33D-03 OVMax= 1.80D-03

 Cycle   5  Pass 1  IDiag  1:
 E= -470.733136795120     Delta-E=       -0.000105789535 Rises=F Damp=F
 DIIS: error= 1.79D-04 at cycle   5 NSaved=   5.
 NSaved= 5 IEnMin= 5 EnMin= -470.733136795120     IErMin= 5 ErrMin= 1.79D-04
 ErrMax= 1.79D-04  0.00D+00 EMaxC= 1.00D-01 BMatC= 6.75D-06 BMatP= 6.33D-05
 IDIUse=3 WtCom= 9.98D-01 WtEn= 1.79D-03
 Coeff-Com:  0.221D-02-0.121D-01-0.846D-01 0.189D+00 0.906D+00
 Coeff-En:   0.000D+00 0.000D+00 0.000D+00 0.000D+00 0.100D+01
 Coeff:      0.220D-02-0.121D-01-0.844D-01 0.188D+00 0.906D+00
 Gap=     0.629 Goal=   None    Shift=    0.000
 RMSDP=1.61D-05 MaxDP=3.25D-04 DE=-1.06D-04 OVMax= 5.06D-04

 Cycle   6  Pass 1  IDiag  1:
 E= -470.733146226566     Delta-E=       -0.000009431446 Rises=F Damp=F
 DIIS: error= 2.61D-05 at cycle   6 NSaved=   6.
 NSaved= 6 IEnMin= 6 EnMin= -470.733146226566     IErMin= 6 ErrMin= 2.61D-05
 ErrMax= 2.61D-05  0.00D+00 EMaxC= 1.00D-01 BMatC= 1.47D-07 BMatP= 6.75D-06
 IDIUse=1 WtCom= 1.00D+00 WtEn= 0.00D+00
 Coeff-Com:  0.157D-03-0.376D-03-0.400D-02-0.303D-01 0.682D-01 0.966D+00
 Coeff:      0.157D-03-0.376D-03-0.400D-02-0.303D-01 0.682D-01 0.966D+00
 Gap=     0.629 Goal=   None    Shift=    0.000
 RMSDP=3.36D-06 MaxDP=6.24D-05 DE=-9.43D-06 OVMax= 1.00D-04

 Cycle   7  Pass 1  IDiag  1:
 E= -470.733146471879     Delta-E=       -0.000000245312 Rises=F Damp=F
 DIIS: error= 4.21D-06 at cycle   7 NSaved=   7.
 NSaved= 7 IEnMin= 7 EnMin= -470.733146471879     IErMin= 7 ErrMin= 4.21D-06
 ErrMax= 4.21D-06  0.00D+00 EMaxC= 1.00D-01 BMatC= 5.79D-09 BMatP= 1.47D-07
 IDIUse=1 WtCom= 1.00D+00 WtEn= 0.00D+00
 Coeff-Com: -0.541D-04 0.338D-03 0.242D-02-0.770D-02-0.243D-01 0.363D-01
 Coeff-Com:  0.993D+00
 Coeff:     -0.541D-04 0.338D-03 0.242D-02-0.770D-02-0.243D-01 0.363D-01
 Coeff:      0.993D+00
 Gap=     0.629 Goal=   None    Shift=    0.000
 RMSDP=7.28D-07 MaxDP=1.38D-05 DE=-2.45D-07 OVMax= 2.32D-05

 Cycle   8  Pass 1  IDiag  1:
 E= -470.733146481785     Delta-E=       -0.000000009907 Rises=F Damp=F
 DIIS: error= 2.53D-06 at cycle   8 NSaved=   8.
 NSaved= 8 IEnMin= 8 EnMin= -470.733146481785     IErMin= 8 ErrMin= 2.53D-06
 ErrMax= 2.53D-06  0.00D+00 EMaxC= 1.00D-01 BMatC= 6.06D-10 BMatP= 5.79D-09
 IDIUse=1 WtCom= 1.00D+00 WtEn= 0.00D+00
 Coeff-Com: -0.163D-04 0.640D-04 0.566D-03 0.120D-02-0.727D-02-0.651D-01
 Coeff-Com:  0.129D+00 0.942D+00
 Coeff:     -0.163D-04 0.640D-04 0.566D-03 0.120D-02-0.727D-02-0.651D-01
 Coeff:      0.129D+00 0.942D+00
 Gap=     0.629 Goal=   None    Shift=    0.000
 RMSDP=2.05D-07 MaxDP=4.41D-06 DE=-9.91D-09 OVMax= 7.35D-06

 Cycle   9  Pass 1  IDiag  1:
 E= -470.733146482806     Delta-E=       -0.000000001020 Rises=F Damp=F
 DIIS: error= 4.41D-07 at cycle   9 NSaved=   9.
 NSaved= 9 IEnMin= 9 EnMin= -470.733146482806     IErMin= 9 ErrMin= 4.41D-07
 ErrMax= 4.41D-07  0.00D+00 EMaxC= 1.00D-01 BMatC= 3.71D-11 BMatP= 6.06D-10
 IDIUse=1 WtCom= 1.00D+00 WtEn= 0.00D+00
 Coeff-Com:  0.491D-05-0.293D-04-0.216D-03 0.491D-03 0.244D-02 0.164D-02
 Coeff-Com: -0.823D-01-0.634D-01 0.114D+01
 Coeff:      0.491D-05-0.293D-04-0.216D-03 0.491D-03 0.244D-02 0.164D-02
 Coeff:     -0.823D-01-0.634D-01 0.114D+01
 Gap=     0.629 Goal=   None    Shift=    0.000
 RMSDP=7.07D-08 MaxDP=1.11D-06 DE=-1.02D-09 OVMax= 2.08D-06

 Cycle  10  Pass 1  IDiag  1:
 E= -470.733146482895     Delta-E=       -0.000000000089 Rises=F Damp=F
 DIIS: error= 1.10D-07 at cycle  10 NSaved=  10.
 NSaved=10 IEnMin=10 EnMin= -470.733146482895     IErMin=10 ErrMin= 1.10D-07
 ErrMax= 1.10D-07  0.00D+00 EMaxC= 1.00D-01 BMatC= 1.61D-12 BMatP= 3.71D-11
 IDIUse=1 WtCom= 1.00D+00 WtEn= 0.00D+00
 Coeff-Com:  0.497D-06-0.135D-05-0.163D-04-0.122D-03 0.252D-03 0.400D-02
 Coeff-Com: -0.940D-03-0.554D-01-0.897D-01 0.114D+01
 Coeff:      0.497D-06-0.135D-05-0.163D-04-0.122D-03 0.252D-03 0.400D-02
 Coeff:     -0.940D-03-0.554D-01-0.897D-01 0.114D+01
 Gap=     0.629 Goal=   None    Shift=    0.000
 RMSDP=1.48D-08 MaxDP=2.54D-07 DE=-8.94D-11 OVMax= 5.16D-07

 Cycle  11  Pass 1  IDiag  1:
 E= -470.733146482895     Delta-E=        0.000000000000 Rises=F Damp=F
 DIIS: error= 9.40D-09 at cycle  11 NSaved=  11.
 NSaved=11 IEnMin=10 EnMin= -470.733146482895     IErMin=11 ErrMin= 9.40D-09
 ErrMax= 9.40D-09  0.00D+00 EMaxC= 1.00D-01 BMatC= 4.68D-14 BMatP= 1.61D-12
 IDIUse=1 WtCom= 1.00D+00 WtEn= 0.00D+00
 Coeff-Com: -0.177D-06 0.103D-05 0.745D-05-0.424D-05-0.941D-04-0.364D-03
 Coeff-Com:  0.246D-02 0.608D-02-0.226D-01-0.107D+00 0.112D+01
 Coeff:     -0.177D-06 0.103D-05 0.745D-05-0.424D-05-0.941D-04-0.364D-03
 Coeff:      0.246D-02 0.608D-02-0.226D-01-0.107D+00 0.112D+01
 Gap=     0.629 Goal=   None    Shift=    0.000
 RMSDP=1.94D-09 MaxDP=3.13D-08 DE= 4.55D-13 OVMax= 6.04D-08

 SCF Done:  E(RHF) =  -470.733146483     A.U. after   11 cycles
            NFock= 11  Conv=0.19D-08     -V/T= 2.0011
 KE= 4.702279416153D+02 PE=-2.527281860047D+03 EE= 8.692279835346D+02
 Leave Link  502 at Thu May  6 07:00:40 2021, MaxMem=   524288000 cpu:              17.2 elap:              11.7
 (Enter /opt/gaussian/g16_legacy/l801.exe)
 ExpMin= 1.61D-01 ExpMax= 3.05D+03 ExpMxC= 4.57D+02 IAcc=3 IRadAn=         5 AccDes= 0.00D+00
 HarFok:  IExCor=  205 AccDes= 0.00D+00 IRadAn=         5 IDoV=-2 UseB2=F ITyADJ=14
 ICtDFT= 12500011 ScaDFX=  1.000000  1.000000  1.000000  1.000000
 Largest valence mixing into a core orbital is  1.98D-04
 Largest core mixing into a valence orbital is  3.29D-05
 Range of M.O.s used for correlation:    13   236
 NBasis=   236 NAE=    50 NBE=    50 NFC=    12 NFV=     0
 NROrb=    224 NOA=    38 NOB=    38 NVA=   186 NVB=   186
 Leave Link  801 at Thu May  6 07:00:41 2021, MaxMem=   524288000 cpu:               1.5 elap:               1.2
 (Enter /opt/gaussian/g16_legacy/l906.exe)
 FulOut=F Deriv=F AODrv=F NAtomX=    40
   MMem=         154  MDisk=          38 MDiskD=          38
  W3Min=     1668048 MinDsk=     1838182 NBas6D=         236
 NBas2D=       28290    NTT=       27966    LW2=     2000000
    MDV=   523917690 MDiskM=       30715 NBas2p=       21927
 Fully direct method using O(OVN) memory.
 IMap=   1   2   3   4   5   6   7   8   9  10  11  12  13  14  15  16  17  18  19  20
 IMap=  21  22  23  24  25  26  27  28  29  30  31  32  33  34  35  36  37  38
 JobTyp=1 Pass  1:  I=   1 to  38 NPSUse=  2 ParTrn=T ParDer=T DoDerP=F.
 Spin components of T(2) and E(2):
     alpha-alpha T2 =       0.6296755757D-01 E2=     -0.1845743504D+00
     alpha-beta  T2 =       0.4046449952D+00 E2=     -0.1215206082D+01
     beta-beta   T2 =       0.6296755757D-01 E2=     -0.1845743504D+00
 The integrals were generated   1 times.
 ANorm=    0.1237166161D+01
 E2 =    -0.1584354782D+01 EUMP2 =    -0.47231750126526D+03
 Leave Link  906 at Thu May  6 07:01:26 2021, MaxMem=   524288000 cpu:              88.9 elap:              44.9
 (Enter /opt/gaussian/g16_legacy/l601.exe)
 Copying SCF densities to generalized density rwf, IOpCl= 0 IROHF=0.

 **********************************************************************

            Population analysis using the SCF density.

 **********************************************************************

 Orbital symmetries:
       Occupied  (A) (A) (A) (A) (A) (A) (A) (A) (A) (A) (A) (A)
                 (A) (A) (A) (A) (A) (A) (A) (A) (A) (A) (A) (A)
                 (A) (A) (A) (A) (A) (A) (A) (A) (A) (A) (A) (A)
                 (A) (A) (A) (A) (A) (A) (A) (A) (A) (A) (A) (A)
                 (A) (A)
       Virtual   (A) (A) (A) (A) (A) (A) (A) (A) (A) (A) (A) (A)
                 (A) (A) (A) (A) (A) (A) (A) (A) (A) (A) (A) (A)
                 (A) (A) (A) (A) (A) (A) (A) (A) (A) (A) (A) (A)
                 (A) (A) (A) (A) (A) (A) (A) (A) (A) (A) (A) (A)
                 (A) (A) (A) (A) (A) (A) (A) (A) (A) (A) (A) (A)
                 (A) (A) (A) (A) (A) (A) (A) (A) (A) (A) (A) (A)
                 (A) (A) (A) (A) (A) (A) (A) (A) (A) (A) (A) (A)
                 (A) (A) (A) (A) (A) (A) (A) (A) (A) (A) (A) (A)
                 (A) (A) (A) (A) (A) (A) (A) (A) (A) (A) (A) (A)
                 (A) (A) (A) (A) (A) (A) (A) (A) (A) (A) (A) (A)
                 (A) (A) (A) (A) (A) (A) (A) (A) (A) (A) (A) (A)
                 (A) (A) (A) (A) (A) (A) (A) (A) (A) (A) (A) (A)
                 (A) (A) (A) (A) (A) (A) (A) (A) (A) (A) (A) (A)
                 (A) (A) (A) (A) (A) (A) (A) (A) (A) (A) (A) (A)
                 (A) (A) (A) (A) (A) (A) (A) (A) (A) (A) (A) (A)
                 (A) (A) (A) (A) (A) (A)
 The electronic state is 1-A.
 Alpha  occ. eigenvalues --  -11.21662 -11.21648 -11.21640 -11.21606 -11.21471
 Alpha  occ. eigenvalues --  -11.21458 -11.21411 -11.21398 -11.21124 -11.21110
 Alpha  occ. eigenvalues --  -11.21109 -11.21041  -1.08521  -1.08449  -1.03589
 Alpha  occ. eigenvalues --   -1.03552  -0.96032  -0.96002  -0.87050  -0.87017
 Alpha  occ. eigenvalues --   -0.79711  -0.79565  -0.78318  -0.78289  -0.65390
 Alpha  occ. eigenvalues --   -0.64870  -0.61056  -0.60895  -0.59436  -0.59337
 Alpha  occ. eigenvalues --   -0.57661  -0.57594  -0.55338  -0.55274  -0.52723
 Alpha  occ. eigenvalues --   -0.52690  -0.52459  -0.52427  -0.49998  -0.49945
 Alpha  occ. eigenvalues --   -0.48067  -0.47930  -0.46934  -0.46460  -0.46143
 Alpha  occ. eigenvalues --   -0.45798  -0.45636  -0.45412  -0.43840  -0.43812
 Alpha virt. eigenvalues --    0.19106   0.23044   0.23751   0.23861   0.25669
 Alpha virt. eigenvalues --    0.26780   0.26945   0.27923   0.28167   0.30007
 Alpha virt. eigenvalues --    0.30350   0.31480   0.31630   0.31812   0.32189
 Alpha virt. eigenvalues --    0.32639   0.33150   0.33616   0.34120   0.34269
 Alpha virt. eigenvalues --    0.34661   0.34887   0.35731   0.36173   0.36405
 Alpha virt. eigenvalues --    0.36507   0.38403   0.39213   0.39937   0.41099
 Alpha virt. eigenvalues --    0.43859   0.45066   0.45319   0.45462   0.45872
 Alpha virt. eigenvalues --    0.47560   0.47944   0.48462   0.69038   0.69221
 Alpha virt. eigenvalues --    0.69469   0.69517   0.71368   0.71720   0.75136
 Alpha virt. eigenvalues --    0.75667   0.76370   0.77074   0.77950   0.79510
 Alpha virt. eigenvalues --    0.80578   0.81078   0.83879   0.84271   0.86821
 Alpha virt. eigenvalues --    0.87292   0.87793   0.88137   0.95697   0.96105
 Alpha virt. eigenvalues --    0.96306   0.96366   0.98414   0.98634   1.01504
 Alpha virt. eigenvalues --    1.01567   1.04929   1.05902   1.07531   1.07655
 Alpha virt. eigenvalues --    1.10708   1.10886   1.11841   1.13511   1.15858
 Alpha virt. eigenvalues --    1.16110   1.16647   1.16731   1.17323   1.18142
 Alpha virt. eigenvalues --    1.18471   1.18687   1.19125   1.19965   1.20381
 Alpha virt. eigenvalues --    1.20463   1.20973   1.21117   1.21380   1.21634
 Alpha virt. eigenvalues --    1.21798   1.22281   1.22933   1.23323   1.24375
 Alpha virt. eigenvalues --    1.24838   1.26291   1.26867   1.27160   1.27610
 Alpha virt. eigenvalues --    1.36457   1.38886   1.43774   1.49110   1.55901
 Alpha virt. eigenvalues --    1.57509   1.65851   1.66232   1.67254   1.67280
 Alpha virt. eigenvalues --    1.70912   1.71971   1.72726   1.73020   1.79137
 Alpha virt. eigenvalues --    1.80802   1.81077   1.82124   1.92651   1.92774
 Alpha virt. eigenvalues --    2.05219   2.05573   2.12957   2.13500   2.14727
 Alpha virt. eigenvalues --    2.14833   2.17874   2.17972   2.22363   2.22453
 Alpha virt. eigenvalues --    2.25519   2.25755   2.25903   2.26596   2.27568
 Alpha virt. eigenvalues --    2.27845   2.32830   2.32886   2.33835   2.34138
 Alpha virt. eigenvalues --    2.35908   2.36065   2.39605   2.39712   2.43016
 Alpha virt. eigenvalues --    2.43272   2.56669   2.56750   2.56760   2.56854
 Alpha virt. eigenvalues --    2.59531   2.60132   2.66728   2.66873   2.67674
 Alpha virt. eigenvalues --    2.67719   2.67728   2.68233   2.76839   2.77056
 Alpha virt. eigenvalues --    2.77675   2.78128   2.79922   2.80171   2.91342
 Alpha virt. eigenvalues --    2.91447   2.94893   2.95198   2.98488   2.98635
 Alpha virt. eigenvalues --    3.13691   3.13772   3.18510   3.18649   4.54970
 Alpha virt. eigenvalues --    4.57655   4.62700   4.63659   4.71978   4.72348
 Alpha virt. eigenvalues --    4.79638   4.80940   4.87439   4.90957   5.01023
 Alpha virt. eigenvalues --    5.01392
          Condensed to atoms (all electrons):
               1          2          3          4          5          6
     1  C    5.092945   0.350915  -0.057130   0.396544   0.396333  -0.043601
     2  C    0.350915   5.061788   0.340392  -0.041554  -0.041894   0.398989
     3  C   -0.057130   0.340392   5.098150  -0.003012  -0.002857  -0.039925
     4  H    0.396544  -0.041554  -0.003012   0.558556  -0.031716  -0.003007
     5  H    0.396333  -0.041894  -0.002857  -0.031716   0.566140   0.004570
     6  H   -0.043601   0.398989  -0.039925  -0.003007   0.004570   0.564574
     7  H   -0.043493   0.399174  -0.039818   0.004465  -0.002983  -0.031563
     8  H   -0.003788  -0.038922   0.391297   0.000173   0.002626   0.004220
     9  H   -0.003595  -0.039120   0.391168   0.002287   0.000167  -0.002866
    10  H    0.004375  -0.035777   0.394143  -0.000044  -0.000058  -0.002514
    11  C    0.354206  -0.051760   0.004067  -0.041211  -0.041628  -0.003212
    12  C   -0.051663   0.003962  -0.000085  -0.003111  -0.003250  -0.000065
    13  C    0.004063  -0.000084   0.000001  -0.000044  -0.000053  -0.000000
    14  H   -0.041697  -0.003291  -0.000052  -0.002819   0.004472   0.002417
    15  H   -0.041564  -0.003272  -0.000051   0.004361  -0.002798   0.000242
    16  H   -0.003196  -0.000053  -0.000000   0.001876   0.000252   0.000018
    17  H   -0.003191  -0.000065  -0.000000   0.000244   0.002409  -0.000003
    18  H   -0.000070  -0.000001  -0.000000  -0.000002   0.000013   0.000000
    19  H   -0.000069  -0.000001  -0.000000   0.000013  -0.000001  -0.000002
    20  H   -0.000087   0.000001  -0.000000   0.000001   0.000001   0.000000
    21  C   -0.000227   0.000007  -0.000013  -0.000138   0.000003   0.000001
    22  C    0.000043  -0.000000   0.000001   0.000005  -0.000003   0.000000
    23  C   -0.000121   0.000004  -0.000003  -0.000175  -0.000015  -0.000000
    24  H   -0.000059  -0.000005   0.000004   0.001306  -0.000000   0.000002
    25  H    0.000003  -0.000000   0.000000   0.000002  -0.000000  -0.000000
    26  H    0.000050  -0.000001   0.000000   0.000070   0.000000  -0.000000
    27  H   -0.000000  -0.000000  -0.000000   0.000005   0.000000  -0.000000
    28  H    0.000001  -0.000000   0.000000   0.000002   0.000000   0.000000
    29  H    0.000233  -0.000016   0.000010   0.000568   0.000145   0.000001
    30  H    0.000001  -0.000000   0.000000  -0.000000   0.000000   0.000000
    31  C    0.000003  -0.000000   0.000000   0.000004   0.000000  -0.000000
    32  C   -0.000000  -0.000000  -0.000000  -0.000004   0.000000   0.000000
    33  C    0.000000   0.000000   0.000000   0.000000  -0.000000  -0.000000
    34  H    0.000004  -0.000000  -0.000000   0.000033  -0.000000  -0.000000
    35  H   -0.000000   0.000000  -0.000000   0.000000   0.000000   0.000000
    36  H    0.000000   0.000000  -0.000000   0.000002   0.000000   0.000003
    37  H   -0.000000   0.000000  -0.000000   0.000000   0.000000  -0.000000
    38  H    0.000000  -0.000000  -0.000000  -0.000000   0.000000   0.000000
    39  H   -0.000000   0.000000  -0.000000  -0.000000   0.000000  -0.000000
    40  H   -0.000000   0.000000   0.000000  -0.000000   0.000000  -0.000000
               7          8          9         10         11         12
     1  C   -0.043493  -0.003788  -0.003595   0.004375   0.354206  -0.051663
     2  C    0.399174  -0.038922  -0.039120  -0.035777  -0.051760   0.003962
     3  C   -0.039818   0.391297   0.391168   0.394143   0.004067  -0.000085
     4  H    0.004465   0.000173   0.002287  -0.000044  -0.041211  -0.003111
     5  H   -0.002983   0.002626   0.000167  -0.000058  -0.041628  -0.003250
     6  H   -0.031563   0.004220  -0.002866  -0.002514  -0.003212  -0.000065
     7  H    0.563559  -0.002883   0.004214  -0.002503  -0.003191  -0.000064
     8  H   -0.002883   0.548340  -0.029099  -0.027443  -0.000071  -0.000001
     9  H    0.004214  -0.029099   0.549030  -0.027433  -0.000070  -0.000000
    10  H   -0.002503  -0.027443  -0.027433   0.536638  -0.000087   0.000001
    11  C   -0.003191  -0.000071  -0.000070  -0.000087   5.084541   0.351356
    12  C   -0.000064  -0.000001  -0.000000   0.000001   0.351356   5.071558
    13  C   -0.000000  -0.000000  -0.000000  -0.000000  -0.057280   0.339815
    14  H    0.000244  -0.000001   0.000014   0.000001   0.395911  -0.041825
    15  H    0.002396   0.000013  -0.000001   0.000001   0.396312  -0.041705
    16  H   -0.000005   0.000000  -0.000002   0.000000  -0.043590   0.398101
    17  H    0.000017  -0.000002   0.000000   0.000000  -0.043592   0.399616
    18  H   -0.000002   0.000000  -0.000000  -0.000000  -0.003802  -0.038843
    19  H    0.000000  -0.000000   0.000000  -0.000000  -0.003807  -0.038811
    20  H    0.000000  -0.000000  -0.000000   0.000000   0.004399  -0.035816
    21  C   -0.000000   0.000000  -0.000001   0.000000   0.000009   0.000020
    22  C    0.000000   0.000000  -0.000002  -0.000000   0.000020  -0.000501
    23  C   -0.000000  -0.000000  -0.000002   0.000000   0.000003   0.000039
    24  H    0.000000  -0.000001   0.000281  -0.000001  -0.000004   0.000002
    25  H    0.000000  -0.000000  -0.000001  -0.000000  -0.000000  -0.000000
    26  H    0.000000  -0.000000  -0.000000  -0.000000  -0.000003  -0.000217
    27  H    0.000000   0.000000   0.000000   0.000000  -0.000000   0.000006
    28  H    0.000000   0.000000  -0.000000  -0.000000  -0.000000  -0.000000
    29  H    0.000000   0.000005   0.000043  -0.000000  -0.000022   0.000019
    30  H    0.000000  -0.000000  -0.000000  -0.000000  -0.000000   0.000003
    31  C    0.000000  -0.000000  -0.000001  -0.000000  -0.000001  -0.000008
    32  C   -0.000000   0.000000  -0.000000   0.000000  -0.000000   0.000000
    33  C   -0.000000  -0.000000  -0.000000  -0.000000   0.000000  -0.000000
    34  H    0.000000   0.000000  -0.000000   0.000000   0.000000   0.000003
    35  H   -0.000000   0.000000   0.000000   0.000000   0.000000   0.000000
    36  H    0.000000   0.000000   0.000004  -0.000000  -0.000000   0.000000
    37  H   -0.000000   0.000000  -0.000000   0.000000   0.000000  -0.000000
    38  H    0.000000   0.000000   0.000000  -0.000000  -0.000000   0.000000
    39  H   -0.000000   0.000000  -0.000000   0.000000  -0.000000  -0.000000
    40  H   -0.000000  -0.000000   0.000000   0.000000   0.000000   0.000000
              13         14         15         16         17         18
     1  C    0.004063  -0.041697  -0.041564  -0.003196  -0.003191  -0.000070
     2  C   -0.000084  -0.003291  -0.003272  -0.000053  -0.000065  -0.000001
     3  C    0.000001  -0.000052  -0.000051  -0.000000  -0.000000  -0.000000
     4  H   -0.000044  -0.002819   0.004361   0.001876   0.000244  -0.000002
     5  H   -0.000053   0.004472  -0.002798   0.000252   0.002409   0.000013
     6  H   -0.000000   0.002417   0.000242   0.000018  -0.000003   0.000000
     7  H   -0.000000   0.000244   0.002396  -0.000005   0.000017  -0.000002
     8  H   -0.000000  -0.000001   0.000013   0.000000  -0.000002   0.000000
     9  H   -0.000000   0.000014  -0.000001  -0.000002   0.000000  -0.000000
    10  H   -0.000000   0.000001   0.000001   0.000000   0.000000  -0.000000
    11  C   -0.057280   0.395911   0.396312  -0.043590  -0.043592  -0.003802
    12  C    0.339815  -0.041825  -0.041705   0.398101   0.399616  -0.038843
    13  C    5.097433  -0.002880  -0.002869  -0.039812  -0.039844   0.391336
    14  H   -0.002880   0.567602  -0.031400  -0.003031   0.004576   0.000162
    15  H   -0.002869  -0.031400   0.565908   0.004501  -0.002959   0.002619
    16  H   -0.039812  -0.003031   0.004501   0.556838  -0.031984   0.004190
    17  H   -0.039844   0.004576  -0.002959  -0.031984   0.563448  -0.002883
    18  H    0.391336   0.000162   0.002619   0.004190  -0.002883   0.548440
    19  H    0.391176   0.002639   0.000161  -0.002965   0.004220  -0.029113
    20  H    0.394142  -0.000059  -0.000058  -0.002506  -0.002500  -0.027449
    21  C   -0.000000  -0.000000  -0.000000   0.000038  -0.000001   0.000000
    22  C    0.000007  -0.000001  -0.000000  -0.000450   0.000006  -0.000000
    23  C   -0.000000  -0.000000  -0.000000   0.000055  -0.000000   0.000000
    24  H   -0.000000   0.000001   0.000000   0.000010  -0.000000   0.000000
    25  H    0.000000   0.000000   0.000000  -0.000000   0.000000  -0.000000
    26  H   -0.000000   0.000008   0.000000   0.001953   0.000040  -0.000000
    27  H   -0.000000  -0.000000   0.000000   0.000014  -0.000000   0.000000
    28  H   -0.000000   0.000000   0.000000  -0.000000   0.000000   0.000000
    29  H   -0.000000   0.000001   0.000000   0.000039   0.000008   0.000000
    30  H   -0.000000   0.000000   0.000000   0.000009   0.000002   0.000000
    31  C    0.000000   0.000001   0.000000  -0.000004   0.000000  -0.000000
    32  C    0.000000  -0.000000  -0.000000  -0.000000  -0.000000   0.000000
    33  C   -0.000000  -0.000000   0.000000   0.000000  -0.000000   0.000000
    34  H   -0.000001   0.000014   0.000000   0.000115  -0.000000   0.000000
    35  H   -0.000000  -0.000000  -0.000000  -0.000001  -0.000000   0.000000
    36  H   -0.000000   0.000000   0.000000  -0.000000   0.000000  -0.000000
    37  H   -0.000000   0.000000   0.000000   0.000000   0.000000  -0.000000
    38  H   -0.000000   0.000000  -0.000000  -0.000000   0.000000  -0.000000
    39  H    0.000000   0.000000  -0.000000   0.000000   0.000000  -0.000000
    40  H    0.000000  -0.000000  -0.000000  -0.000000  -0.000000   0.000000
              19         20         21         22         23         24
     1  C   -0.000069  -0.000087  -0.000227   0.000043  -0.000121  -0.000059
     2  C   -0.000001   0.000001   0.000007  -0.000000   0.000004  -0.000005
     3  C   -0.000000  -0.000000  -0.000013   0.000001  -0.000003   0.000004
     4  H    0.000013   0.000001  -0.000138   0.000005  -0.000175   0.001306
     5  H   -0.000001   0.000001   0.000003  -0.000003  -0.000015  -0.000000
     6  H   -0.000002   0.000000   0.000001   0.000000  -0.000000   0.000002
     7  H    0.000000   0.000000  -0.000000   0.000000  -0.000000   0.000000
     8  H   -0.000000  -0.000000   0.000000   0.000000  -0.000000  -0.000001
     9  H    0.000000  -0.000000  -0.000001  -0.000002  -0.000002   0.000281
    10  H   -0.000000   0.000000   0.000000  -0.000000   0.000000  -0.000001
    11  C   -0.003807   0.004399   0.000009   0.000020   0.000003  -0.000004
    12  C   -0.038811  -0.035816   0.000020  -0.000501   0.000039   0.000002
    13  C    0.391176   0.394142  -0.000000   0.000007  -0.000000  -0.000000
    14  H    0.002639  -0.000059  -0.000000  -0.000001  -0.000000   0.000001
    15  H    0.000161  -0.000058  -0.000000  -0.000000  -0.000000   0.000000
    16  H   -0.002965  -0.002506   0.000038  -0.000450   0.000055   0.000010
    17  H    0.004220  -0.002500  -0.000001   0.000006  -0.000000  -0.000000
    18  H   -0.029113  -0.027449   0.000000  -0.000000   0.000000   0.000000
    19  H    0.549103  -0.027487  -0.000000  -0.000000  -0.000000  -0.000000
    20  H   -0.027487   0.536911  -0.000000   0.000000  -0.000000  -0.000000
    21  C   -0.000000  -0.000000   5.089776   0.351428  -0.057027   0.395598
    22  C   -0.000000   0.000000   0.351428   5.071510   0.340530  -0.042069
    23  C   -0.000000  -0.000000  -0.057027   0.340530   5.099399  -0.002844
    24  H   -0.000000  -0.000000   0.395598  -0.042069  -0.002844   0.564620
    25  H    0.000000   0.000000   0.395948  -0.041678  -0.002869  -0.031371
    26  H    0.000004   0.000002  -0.043985   0.397514  -0.040191  -0.003112
    27  H   -0.000000  -0.000000  -0.043470   0.398982  -0.039748   0.004546
    28  H    0.000000   0.000000  -0.003848  -0.038860   0.391021   0.000173
    29  H    0.000000   0.000000  -0.003828  -0.038747   0.391273   0.002328
    30  H    0.000000  -0.000000   0.004394  -0.035748   0.394008  -0.000053
    31  C    0.000000   0.000000   0.355087  -0.051796   0.004068  -0.041781
    32  C   -0.000000  -0.000000  -0.051948   0.003970  -0.000085  -0.003209
    33  C   -0.000000  -0.000000   0.004074  -0.000085   0.000001  -0.000053
    34  H    0.000001  -0.000000  -0.041831  -0.003104  -0.000051  -0.002845
    35  H   -0.000000   0.000000  -0.041552  -0.003271  -0.000052   0.004457
    36  H   -0.000000   0.000000  -0.003184  -0.000066  -0.000000   0.002426
    37  H    0.000000  -0.000000  -0.003202  -0.000064  -0.000000   0.000236
    38  H   -0.000000   0.000000  -0.000070  -0.000001  -0.000000  -0.000001
    39  H    0.000000  -0.000000  -0.000070  -0.000000  -0.000000   0.000013
    40  H   -0.000000   0.000000  -0.000087   0.000001  -0.000000   0.000001
              25         26         27         28         29         30
     1  C    0.000003   0.000050  -0.000000   0.000001   0.000233   0.000001
     2  C   -0.000000  -0.000001  -0.000000  -0.000000  -0.000016  -0.000000
     3  C    0.000000   0.000000  -0.000000   0.000000   0.000010   0.000000
     4  H    0.000002   0.000070   0.000005   0.000002   0.000568  -0.000000
     5  H   -0.000000   0.000000   0.000000   0.000000   0.000145   0.000000
     6  H   -0.000000  -0.000000  -0.000000   0.000000   0.000001   0.000000
     7  H    0.000000   0.000000   0.000000   0.000000   0.000000   0.000000
     8  H   -0.000000  -0.000000   0.000000   0.000000   0.000005  -0.000000
     9  H   -0.000001  -0.000000   0.000000  -0.000000   0.000043  -0.000000
    10  H   -0.000000  -0.000000   0.000000  -0.000000  -0.000000  -0.000000
    11  C   -0.000000  -0.000003  -0.000000  -0.000000  -0.000022  -0.000000
    12  C   -0.000000  -0.000217   0.000006  -0.000000   0.000019   0.000003
    13  C    0.000000  -0.000000  -0.000000  -0.000000  -0.000000  -0.000000
    14  H    0.000000   0.000008  -0.000000   0.000000   0.000001   0.000000
    15  H    0.000000   0.000000   0.000000   0.000000   0.000000   0.000000
    16  H   -0.000000   0.001953   0.000014  -0.000000   0.000039   0.000009
    17  H    0.000000   0.000040  -0.000000   0.000000   0.000008   0.000002
    18  H   -0.000000  -0.000000   0.000000   0.000000   0.000000   0.000000
    19  H    0.000000   0.000004  -0.000000   0.000000   0.000000   0.000000
    20  H    0.000000   0.000002  -0.000000   0.000000   0.000000  -0.000000
    21  C    0.395948  -0.043985  -0.043470  -0.003848  -0.003828   0.004394
    22  C   -0.041678   0.397514   0.398982  -0.038860  -0.038747  -0.035748
    23  C   -0.002869  -0.040191  -0.039748   0.391021   0.391273   0.394008
    24  H   -0.031371  -0.003112   0.004546   0.000173   0.002328  -0.000053
    25  H    0.566029   0.004554  -0.002981   0.002622   0.000170  -0.000058
    26  H    0.004554   0.558197  -0.031668   0.004261  -0.003040  -0.002546
    27  H   -0.002981  -0.031668   0.563737  -0.002881   0.004184  -0.002492
    28  H    0.002622   0.004261  -0.002881   0.549165  -0.029021  -0.027524
    29  H    0.000170  -0.003040   0.004184  -0.029021   0.545330  -0.027221
    30  H   -0.000058  -0.002546  -0.002492  -0.027524  -0.027221   0.536987
    31  C   -0.041610  -0.003265  -0.003203  -0.000069  -0.000065  -0.000087
    32  C   -0.003267  -0.000058  -0.000063  -0.000001  -0.000000   0.000001
    33  C   -0.000052  -0.000000  -0.000000  -0.000000  -0.000000  -0.000000
    34  H    0.004467   0.002167   0.000238  -0.000001   0.000013   0.000001
    35  H   -0.002798   0.000271   0.002395   0.000013  -0.000002   0.000001
    36  H    0.000237   0.000018  -0.000003   0.000000  -0.000002   0.000000
    37  H    0.002408  -0.000004   0.000017  -0.000002   0.000000   0.000000
    38  H    0.000013   0.000000  -0.000002   0.000000  -0.000000  -0.000000
    39  H   -0.000001  -0.000002   0.000000  -0.000000   0.000000  -0.000000
    40  H    0.000001   0.000000   0.000000  -0.000000  -0.000000   0.000000
              31         32         33         34         35         36
     1  C    0.000003  -0.000000   0.000000   0.000004  -0.000000   0.000000
     2  C   -0.000000  -0.000000   0.000000  -0.000000   0.000000   0.000000
     3  C    0.000000  -0.000000   0.000000  -0.000000  -0.000000  -0.000000
     4  H    0.000004  -0.000004   0.000000   0.000033   0.000000   0.000002
     5  H    0.000000   0.000000  -0.000000  -0.000000   0.000000   0.000000
     6  H   -0.000000   0.000000  -0.000000  -0.000000   0.000000   0.000003
     7  H    0.000000  -0.000000  -0.000000   0.000000  -0.000000   0.000000
     8  H   -0.000000   0.000000  -0.000000   0.000000   0.000000   0.000000
     9  H   -0.000001  -0.000000  -0.000000  -0.000000   0.000000   0.000004
    10  H   -0.000000   0.000000  -0.000000   0.000000   0.000000  -0.000000
    11  C   -0.000001  -0.000000   0.000000   0.000000   0.000000  -0.000000
    12  C   -0.000008   0.000000  -0.000000   0.000003   0.000000   0.000000
    13  C    0.000000   0.000000  -0.000000  -0.000001  -0.000000  -0.000000
    14  H    0.000001  -0.000000  -0.000000   0.000014  -0.000000   0.000000
    15  H    0.000000  -0.000000   0.000000   0.000000  -0.000000   0.000000
    16  H   -0.000004  -0.000000   0.000000   0.000115  -0.000001  -0.000000
    17  H    0.000000  -0.000000  -0.000000  -0.000000  -0.000000   0.000000
    18  H   -0.000000   0.000000   0.000000   0.000000   0.000000  -0.000000
    19  H    0.000000  -0.000000  -0.000000   0.000001  -0.000000  -0.000000
    20  H    0.000000  -0.000000  -0.000000  -0.000000   0.000000   0.000000
    21  C    0.355087  -0.051948   0.004074  -0.041831  -0.041552  -0.003184
    22  C   -0.051796   0.003970  -0.000085  -0.003104  -0.003271  -0.000066
    23  C    0.004068  -0.000085   0.000001  -0.000051  -0.000052  -0.000000
    24  H   -0.041781  -0.003209  -0.000053  -0.002845   0.004457   0.002426
    25  H   -0.041610  -0.003267  -0.000052   0.004467  -0.002798   0.000237
    26  H   -0.003265  -0.000058  -0.000000   0.002167   0.000271   0.000018
    27  H   -0.003203  -0.000063  -0.000000   0.000238   0.002395  -0.000003
    28  H   -0.000069  -0.000001  -0.000000  -0.000001   0.000013   0.000000
    29  H   -0.000065  -0.000000  -0.000000   0.000013  -0.000002  -0.000002
    30  H   -0.000087   0.000001  -0.000000   0.000001   0.000001   0.000000
    31  C    5.084483   0.352131  -0.057349   0.395977   0.396222  -0.043701
    32  C    0.352131   5.060745   0.340619  -0.041990  -0.041763   0.399064
    33  C   -0.057349   0.340619   5.097337  -0.002856  -0.002855  -0.039908
    34  H    0.395977  -0.041990  -0.002856   0.568165  -0.031481  -0.002981
    35  H    0.396222  -0.041763  -0.002855  -0.031481   0.565915   0.004563
    36  H   -0.043701   0.399064  -0.039908  -0.002981   0.004563   0.564747
    37  H   -0.043620   0.399160  -0.039853   0.004578  -0.002962  -0.031630
    38  H   -0.003799  -0.038890   0.391312   0.000158   0.002622   0.004221
    39  H   -0.003804  -0.038923   0.391257   0.002628   0.000160  -0.002891
    40  H    0.004399  -0.035826   0.394126  -0.000059  -0.000059  -0.002508
              37         38         39         40
     1  C   -0.000000   0.000000  -0.000000  -0.000000
     2  C    0.000000  -0.000000   0.000000   0.000000
     3  C   -0.000000  -0.000000  -0.000000   0.000000
     4  H    0.000000  -0.000000  -0.000000  -0.000000
     5  H    0.000000   0.000000   0.000000   0.000000
     6  H   -0.000000   0.000000  -0.000000  -0.000000
     7  H   -0.000000   0.000000  -0.000000  -0.000000
     8  H    0.000000   0.000000   0.000000  -0.000000
     9  H   -0.000000   0.000000  -0.000000   0.000000
    10  H    0.000000  -0.000000   0.000000   0.000000
    11  C    0.000000  -0.000000  -0.000000   0.000000
    12  C   -0.000000   0.000000  -0.000000   0.000000
    13  C   -0.000000  -0.000000   0.000000   0.000000
    14  H    0.000000   0.000000   0.000000  -0.000000
    15  H    0.000000  -0.000000  -0.000000  -0.000000
    16  H    0.000000  -0.000000   0.000000  -0.000000
    17  H    0.000000   0.000000   0.000000  -0.000000
    18  H   -0.000000  -0.000000  -0.000000   0.000000
    19  H    0.000000  -0.000000   0.000000  -0.000000
    20  H   -0.000000   0.000000  -0.000000   0.000000
    21  C   -0.003202  -0.000070  -0.000070  -0.000087
    22  C   -0.000064  -0.000001  -0.000000   0.000001
    23  C   -0.000000  -0.000000  -0.000000  -0.000000
    24  H    0.000236  -0.000001   0.000013   0.000001
    25  H    0.002408   0.000013  -0.000001   0.000001
    26  H   -0.000004   0.000000  -0.000002   0.000000
    27  H    0.000017  -0.000002   0.000000   0.000000
    28  H   -0.000002   0.000000  -0.000000  -0.000000
    29  H    0.000000  -0.000000   0.000000  -0.000000
    30  H    0.000000  -0.000000  -0.000000   0.000000
    31  C   -0.043620  -0.003799  -0.003804   0.004399
    32  C    0.399160  -0.038890  -0.038923  -0.035826
    33  C   -0.039853   0.391312   0.391257   0.394126
    34  H    0.004578   0.000158   0.002628  -0.000059
    35  H   -0.002962   0.002622   0.000160  -0.000059
    36  H   -0.031630   0.004221  -0.002891  -0.002508
    37  H    0.563856  -0.002889   0.004217  -0.002504
    38  H   -0.002889   0.548557  -0.029137  -0.027466
    39  H    0.004217  -0.029137   0.548989  -0.027490
    40  H   -0.002504  -0.027466  -0.027490   0.537025
 Mulliken charges:
               1
     1  C   -0.306166
     2  C   -0.299414
     3  C   -0.476285
     4  H    0.156321
     5  H    0.150125
     6  H    0.151723
     7  H    0.152434
     8  H    0.155536
     9  H    0.154986
    10  H    0.160700
    11  C   -0.297491
    12  C   -0.308535
    13  C   -0.475105
    14  H    0.148995
    15  H    0.150165
    16  H    0.159587
    17  H    0.152438
    18  H    0.155403
    19  H    0.154937
    20  H    0.160505
    21  C   -0.301900
    22  C   -0.307571
    23  C   -0.477213
    24  H    0.151406
    25  H    0.150233
    26  H    0.158986
    27  H    0.152388
    28  H    0.154949
    29  H    0.157593
    30  H    0.160322
    31  C   -0.298213
    32  C   -0.299661
    33  C   -0.475713
    34  H    0.148639
    35  H    0.150176
    36  H    0.151588
    37  H    0.152260
    38  H    0.155370
    39  H    0.155053
    40  H    0.160446
 Sum of Mulliken charges =  -0.00000
 Mulliken charges with hydrogens summed into heavy atoms:
               1
     1  C    0.000280
     2  C    0.004742
     3  C   -0.005063
    11  C    0.001669
    12  C    0.003490
    13  C   -0.004259
    21  C   -0.000261
    22  C    0.003803
    23  C   -0.004349
    31  C    0.000603
    32  C    0.004188
    33  C   -0.004844
 Electronic spatial extent (au):  <R**2>=           4517.0919
 Charge=             -0.0000 electrons
 Dipole moment (field-independent basis, Debye):
    X=              0.0141    Y=             -0.0035    Z=              0.0064  Tot=              0.0158
 Quadrupole moment (field-independent basis, Debye-Ang):
   XX=            -83.2950   YY=            -85.5411   ZZ=            -85.7565
   XY=              0.2479   XZ=             -0.4740   YZ=             -0.7851
 Traceless Quadrupole moment (field-independent basis, Debye-Ang):
   XX=              1.5692   YY=             -0.6769   ZZ=             -0.8923
   XY=              0.2479   XZ=             -0.4740   YZ=             -0.7851
 Octapole moment (field-independent basis, Debye-Ang**2):
  XXX=              3.0583  YYY=             -0.4590  ZZZ=             -0.4580  XYY=             -1.9053
  XXY=              0.2514  XXZ=              6.8947  XZZ=             -0.0964  YZZ=              0.4119
  YYZ=              0.2078  XYZ=             -0.6752
 Hexadecapole moment (field-independent basis, Debye-Ang**3):
 XXXX=          -3571.4329 YYYY=          -1539.9689 ZZZZ=          -1252.8762 XXXY=              5.7144
 XXXZ=            -17.4168 YYYX=              3.7201 YYYZ=            -20.8749 ZZZX=             -6.5602
 ZZZY=             -3.6563 XXYY=           -860.5852 XXZZ=           -818.3911 YYZZ=           -465.6351
 XXYZ=             -5.6852 YYXZ=              4.8403 ZZXY=             -0.8943
 N-N= 7.170927884138D+02 E-N=-2.527281859948D+03  KE= 4.702279416153D+02
 Leave Link  601 at Thu May  6 07:01:27 2021, MaxMem=   524288000 cpu:               0.3 elap:               0.3
 (Enter /opt/gaussian/g16_legacy/l9999.exe)
 1\1\GINC-TRUENO95\SP\RMP2-FC\6-31G(d)\C12H28\JRAMOS\06-May-2021\0\\#p 
 6-31g* mp2\\Input file generated by CHIRIPA (05-May-2021 14:51:11)\\0,
 1\C,0,-0.666,-0.374,0.\C,0,-1.882,0.553,0.\C,0,-3.207,-0.21,0.\H,0,-0.
 713,-1.03,-0.88\H,0,-0.713,-1.029,0.881\H,0,-1.832,1.207,-0.88\H,0,-1.
 832,1.207,0.88\H,0,-3.283,-0.85,0.885\H,0,-3.283,-0.85,-0.885\H,0,-4.0
 63,0.472,0.\C,0,0.666,0.374,0.\C,0,1.882,-0.553,0.\C,0,3.207,0.21,0.\H
 ,0,0.713,1.029,-0.881\H,0,0.713,1.03,0.88\H,0,1.832,-1.207,-0.88\H,0,1
 .832,-1.207,0.88\H,0,3.283,0.85,0.885\H,0,3.283,0.85,-0.885\H,0,4.063,
 -0.472,0.\C,0,-0.40818,-2.974612,-3.782286\C,0,0.612966,-3.675023,-2.8
 85252\C,0,-0.041711,-4.53861,-1.806637\H,0,-1.066137,-2.35162,-3.16106
 1\H,0,-1.049463,-3.730817,-4.255895\H,0,1.253021,-2.9178,-2.414551\H,0
 ,1.268689,-4.29627,-3.508706\H,0,-0.66569,-5.315054,-2.260934\H,0,-0.6
 81447,-3.928752,-1.160562\H,0,0.706468,-5.029995,-1.176852\C,0,0.23098
 6,-2.10754,-4.865513\C,0,-0.790161,-1.407129,-5.762547\C,0,-0.135484,-
 0.543542,-6.841162\H,0,0.872268,-1.351335,-4.391904\H,0,0.888942,-2.73
 0532,-5.486737\H,0,-1.445884,-0.785882,-5.139093\H,0,-1.430216,-2.1643
 52,-6.233248\H,0,0.504252,-1.153401,-7.487236\H,0,0.488495,0.232902,-6
 .386865\H,0,-0.883663,-0.052157,-7.470947\\Version=EM64L-G16RevA.03\St
 ate=1-A\HF=-470.7331465\MP2=-472.3175013\RMSD=1.943e-09\PG=C01 [X(C12H
 28)]\\@


 ... SUBJECTS WHICH DISCLOSE THEIR FULL POWER, MEANING AND BEAUTY AS SOON
 AS THEY ARE PRESENTED TO THE MIND HAVE VERY LITTLE OF THOSE QUALITIES
 TO DISCLOSE.
                           -- CHARLES DUTTON (1882)
 Job cpu time:       0 days  0 hours  2 minutes  0.6 seconds.
 Elapsed time:       0 days  0 hours  1 minutes  5.1 seconds.
 File lengths (MBytes):  RWF=     26 Int=      0 D2E=      0 Chk=      5 Scr=      1
 Normal termination of Gaussian 16 at Thu May  6 07:01:27 2021.
