 Entering Gaussian System, Link 0=/opt/gaussian/g16_legacy/g16
 Input=gaussian_03557_2_1.com
 Output=gaussian_03557_2_1.log
 Initial command:
 /opt/gaussian/g16_legacy/l1.exe "/scratch-local/jramos/2597753/Gau-4594.inp" -scrdir="/scratch-local/jramos/2597753/"
 Entering Link 1 = /opt/gaussian/g16_legacy/l1.exe PID=      4595.
  
 Copyright (c) 1988,1990,1992,1993,1995,1998,2003,2009,2016,
            Gaussian, Inc.  All Rights Reserved.
  
 This is part of the Gaussian(R) 16 program.  It is based on
 the Gaussian(R) 09 system (copyright 2009, Gaussian, Inc.),
 the Gaussian(R) 03 system (copyright 2003, Gaussian, Inc.),
 the Gaussian(R) 98 system (copyright 1998, Gaussian, Inc.),
 the Gaussian(R) 94 system (copyright 1995, Gaussian, Inc.),
 the Gaussian 92(TM) system (copyright 1992, Gaussian, Inc.),
 the Gaussian 90(TM) system (copyright 1990, Gaussian, Inc.),
 the Gaussian 88(TM) system (copyright 1988, Gaussian, Inc.),
 the Gaussian 86(TM) system (copyright 1986, Carnegie Mellon
 University), and the Gaussian 82(TM) system (copyright 1983,
 Carnegie Mellon University). Gaussian is a federally registered
 trademark of Gaussian, Inc.
  
 This software contains proprietary and confidential information,
 including trade secrets, belonging to Gaussian, Inc.
  
 This software is provided under written license and may be
 used, copied, transmitted, or stored only in accord with that
 written license.
  
 The following legend is applicable only to US Government
 contracts under FAR:
  
                    RESTRICTED RIGHTS LEGEND
  
 Use, reproduction and disclosure by the US Government is
 subject to restrictions as set forth in subparagraphs (a)
 and (c) of the Commercial Computer Software - Restricted
 Rights clause in FAR 52.227-19.
  
 Gaussian, Inc.
 340 Quinnipiac St., Bldg. 40, Wallingford CT 06492
  
  
 ---------------------------------------------------------------
 Warning -- This program may not be used in any manner that
 competes with the business of Gaussian, Inc. or will provide
 assistance to any competitor of Gaussian, Inc.  The licensee
 of this program is prohibited from giving any competitor of
 Gaussian, Inc. access to this program.  By using this program,
 the user acknowledges that Gaussian, Inc. is engaged in the
 business of creating and licensing software in the field of
 computational chemistry and represents and warrants to the
 licensee that it is not a competitor of Gaussian, Inc. and that
 it will not use this program in any manner prohibited above.
 ---------------------------------------------------------------
  

 Cite this work as:
 Gaussian 16, Revision A.03,
 M. J. Frisch, G. W. Trucks, H. B. Schlegel, G. E. Scuseria, 
 M. A. Robb, J. R. Cheeseman, G. Scalmani, V. Barone, 
 G. A. Petersson, H. Nakatsuji, X. Li, M. Caricato, A. V. Marenich, 
 J. Bloino, B. G. Janesko, R. Gomperts, B. Mennucci, H. P. Hratchian, 
 J. V. Ortiz, A. F. Izmaylov, J. L. Sonnenberg, D. Williams-Young, 
 F. Ding, F. Lipparini, F. Egidi, J. Goings, B. Peng, A. Petrone, 
 T. Henderson, D. Ranasinghe, V. G. Zakrzewski, J. Gao, N. Rega, 
 G. Zheng, W. Liang, M. Hada, M. Ehara, K. Toyota, R. Fukuda, 
 J. Hasegawa, M. Ishida, T. Nakajima, Y. Honda, O. Kitao, H. Nakai, 
 T. Vreven, K. Throssell, J. A. Montgomery, Jr., J. E. Peralta, 
 F. Ogliaro, M. J. Bearpark, J. J. Heyd, E. N. Brothers, K. N. Kudin, 
 V. N. Staroverov, T. A. Keith, R. Kobayashi, J. Normand, 
 K. Raghavachari, A. P. Rendell, J. C. Burant, S. S. Iyengar, 
 J. Tomasi, M. Cossi, J. M. Millam, M. Klene, C. Adamo, R. Cammi, 
 J. W. Ochterski, R. L. Martin, K. Morokuma, O. Farkas, 
 J. B. Foresman, and D. J. Fox, Gaussian, Inc., Wallingford CT, 2016.
 
 ******************************************
 Gaussian 16:  EM64L-G16RevA.03 25-Dec-2016
                 6-May-2021 
 ******************************************
 %chk=gaussian_03557_2_1.chk
 %nproc=2
 Will use up to    2 processors via shared memory.
 %mem=4000Mb
 -------------
 #p 6-31g* mp2
 -------------
 1/38=1,172=1/1;
 2/12=2,17=6,18=5,40=1/2;
 3/5=1,6=6,7=1,11=9,25=1,30=1/1,2,3;
 4//1;
 5/5=2,38=5/2;
 8/10=2/1;
 9/16=-3/6;
 6/7=2,8=2,9=2,10=2/1;
 99/5=1,9=1/99;
 Leave Link    1 at Thu May  6 12:36:43 2021, MaxMem=   524288000 cpu:               0.1 elap:               0.1
 (Enter /opt/gaussian/g16_legacy/l101.exe)
 ------------------------------------------------------
 Input file generated by CHIRIPA (05-May-2021 14:55:24)
 ------------------------------------------------------
 Symbolic Z-matrix:
 Charge =  0 Multiplicity = 1
 C                     1.91414   0.        0. 
 C                     1.21414   1.211     0. 
 C                    -0.18386   1.223     0. 
 C                    -0.85286   0.        0. 
 C                    -0.18386  -1.223     0. 
 C                     1.21414  -1.211     0. 
 H                     3.00014   0.        0. 
 H                     1.75514   2.153     0. 
 H                    -0.75086   2.146     0. 
 H                    -0.75086  -2.146     0. 
 H                     1.75514  -2.153     0. 
 N                    -2.33286   0.        0. 
 O                    -2.89886  -1.091     0. 
 O                    -2.89886   1.091     0. 
 C                     0.87293  -2.70678  -4.89271 
 C                    -0.33706  -1.77328  -4.94262 
 C                    -1.14803  -1.92497  -6.22991 
 H                     1.51773  -2.50756  -5.7596 
 H                     0.52977  -3.74603  -4.99067 
 H                     0.00816  -0.73618  -4.84321 
 H                    -0.97895  -1.97461  -4.07541 
 H                    -1.52025  -2.94946  -6.33225 
 H                    -0.52753  -1.704    -7.10442 
 H                    -2.00822  -1.24843  -6.24457 
 C                     1.69363  -2.56683  -3.61186 
 C                     2.90362  -3.50033  -3.56195 
 C                     3.71459  -3.34863  -2.27466 
 H                     2.03679  -1.52758  -3.5139 
 H                     1.04883  -2.76605  -2.74497 
 H                     3.54551  -3.299    -4.42916 
 H                     2.5584   -4.53742  -3.66136 
 H                     3.0941   -3.56961  -1.40016 
 H                     4.08681  -2.32415  -2.17232 
 H                     4.57478  -4.02518  -2.26 
 
 ITRead=  0  0  0  0  0  0  0  0  0  0  0  0  0  0  0  0  0  0  0  0
 ITRead=  0  0  0  0  0  0  0  0  0  0  0  0  0  0
 MicOpt= -1 -1 -1 -1 -1 -1 -1 -1 -1 -1 -1 -1 -1 -1 -1 -1 -1 -1 -1 -1
 MicOpt= -1 -1 -1 -1 -1 -1 -1 -1 -1 -1 -1 -1 -1 -1
 NAtoms=     34 NQM=       34 NQMF=       0 NMMI=      0 NMMIF=      0
                NMic=       0 NMicF=      0.
                    Isotopes and Nuclear Properties:
 (Nuclear quadrupole moments (NQMom) in fm**2, nuclear magnetic moments (NMagM)
  in nuclear magnetons)

  Atom         1           2           3           4           5           6           7           8           9          10
 IAtWgt=          12          12          12          12          12          12           1           1           1           1
 AtmWgt=  12.0000000  12.0000000  12.0000000  12.0000000  12.0000000  12.0000000   1.0078250   1.0078250   1.0078250   1.0078250
 NucSpn=           0           0           0           0           0           0           1           1           1           1
 AtZEff=  -0.0000000  -0.0000000  -0.0000000  -0.0000000  -0.0000000  -0.0000000  -0.0000000  -0.0000000  -0.0000000  -0.0000000
 NQMom=    0.0000000   0.0000000   0.0000000   0.0000000   0.0000000   0.0000000   0.0000000   0.0000000   0.0000000   0.0000000
 NMagM=    0.0000000   0.0000000   0.0000000   0.0000000   0.0000000   0.0000000   2.7928460   2.7928460   2.7928460   2.7928460
 AtZNuc=   6.0000000   6.0000000   6.0000000   6.0000000   6.0000000   6.0000000   1.0000000   1.0000000   1.0000000   1.0000000

  Atom        11          12          13          14          15          16          17          18          19          20
 IAtWgt=           1          14          16          16          12          12          12           1           1           1
 AtmWgt=   1.0078250  14.0030740  15.9949146  15.9949146  12.0000000  12.0000000  12.0000000   1.0078250   1.0078250   1.0078250
 NucSpn=           1           2           0           0           0           0           0           1           1           1
 AtZEff=  -0.0000000  -0.0000000  -0.0000000  -0.0000000  -0.0000000  -0.0000000  -0.0000000  -0.0000000  -0.0000000  -0.0000000
 NQMom=    0.0000000   2.0440000   0.0000000   0.0000000   0.0000000   0.0000000   0.0000000   0.0000000   0.0000000   0.0000000
 NMagM=    2.7928460   0.4037610   0.0000000   0.0000000   0.0000000   0.0000000   0.0000000   2.7928460   2.7928460   2.7928460
 AtZNuc=   1.0000000   7.0000000   8.0000000   8.0000000   6.0000000   6.0000000   6.0000000   1.0000000   1.0000000   1.0000000

  Atom        21          22          23          24          25          26          27          28          29          30
 IAtWgt=           1           1           1           1          12          12          12           1           1           1
 AtmWgt=   1.0078250   1.0078250   1.0078250   1.0078250  12.0000000  12.0000000  12.0000000   1.0078250   1.0078250   1.0078250
 NucSpn=           1           1           1           1           0           0           0           1           1           1
 AtZEff=  -0.0000000  -0.0000000  -0.0000000  -0.0000000  -0.0000000  -0.0000000  -0.0000000  -0.0000000  -0.0000000  -0.0000000
 NQMom=    0.0000000   0.0000000   0.0000000   0.0000000   0.0000000   0.0000000   0.0000000   0.0000000   0.0000000   0.0000000
 NMagM=    2.7928460   2.7928460   2.7928460   2.7928460   0.0000000   0.0000000   0.0000000   2.7928460   2.7928460   2.7928460
 AtZNuc=   1.0000000   1.0000000   1.0000000   1.0000000   6.0000000   6.0000000   6.0000000   1.0000000   1.0000000   1.0000000

  Atom        31          32          33          34
 IAtWgt=           1           1           1           1
 AtmWgt=   1.0078250   1.0078250   1.0078250   1.0078250
 NucSpn=           1           1           1           1
 AtZEff=  -0.0000000  -0.0000000  -0.0000000  -0.0000000
 NQMom=    0.0000000   0.0000000   0.0000000   0.0000000
 NMagM=    2.7928460   2.7928460   2.7928460   2.7928460
 AtZNuc=   1.0000000   1.0000000   1.0000000   1.0000000
 Leave Link  101 at Thu May  6 12:36:43 2021, MaxMem=   524288000 cpu:               0.3 elap:               0.2
 (Enter /opt/gaussian/g16_legacy/l202.exe)
                          Input orientation:                          
 ---------------------------------------------------------------------
 Center     Atomic      Atomic             Coordinates (Angstroms)
 Number     Number       Type             X           Y           Z
 ---------------------------------------------------------------------
      1          6           0        1.914143    0.000000    0.000000
      2          6           0        1.214143    1.211000    0.000000
      3          6           0       -0.183857    1.223000    0.000000
      4          6           0       -0.852857    0.000000    0.000000
      5          6           0       -0.183857   -1.223000    0.000000
      6          6           0        1.214143   -1.211000    0.000000
      7          1           0        3.000143    0.000000    0.000000
      8          1           0        1.755143    2.153000    0.000000
      9          1           0       -0.750857    2.146000    0.000000
     10          1           0       -0.750857   -2.146000    0.000000
     11          1           0        1.755143   -2.153000    0.000000
     12          7           0       -2.332857    0.000000    0.000000
     13          8           0       -2.898857   -1.091000    0.000000
     14          8           0       -2.898857    1.091000    0.000000
     15          6           0        0.872931   -2.706778   -4.892714
     16          6           0       -0.337056   -1.773276   -4.942622
     17          6           0       -1.148025   -1.924972   -6.229910
     18          1           0        1.517728   -2.507559   -5.759601
     19          1           0        0.529770   -3.746028   -4.990669
     20          1           0        0.008162   -0.736184   -4.843212
     21          1           0       -0.978949   -1.974608   -4.075411
     22          1           0       -1.520252   -2.949459   -6.332253
     23          1           0       -0.527532   -1.703998   -7.104416
     24          1           0       -2.008218   -1.248427   -6.244571
     25          6           0        1.693632   -2.566826   -3.611858
     26          6           0        2.903618   -3.500328   -3.561950
     27          6           0        3.714588   -3.348632   -2.274662
     28          1           0        2.036793   -1.527576   -3.513902
     29          1           0        1.048835   -2.766045   -2.744970
     30          1           0        3.545512   -3.298996   -4.429160
     31          1           0        2.558401   -4.537420   -3.661359
     32          1           0        3.094095   -3.569606   -1.400156
     33          1           0        4.086814   -2.324145   -2.172319
     34          1           0        4.574781   -4.025177   -2.260001
 ---------------------------------------------------------------------
                    Distance matrix (angstroms):
                    1          2          3          4          5
     1  C    0.000000
     2  C    1.398757   0.000000
     3  C    2.428443   1.398052   0.000000
     4  C    2.767000   2.395623   1.394019   0.000000
     5  C    2.428443   2.806913   2.446000   1.394019   0.000000
     6  C    1.398757   2.422000   2.806913   2.395623   1.398052
     7  H    1.086000   2.157850   3.410804   3.853000   3.410804
     8  H    2.158863   1.086299   2.150493   3.381874   3.893212
     9  H    3.421628   2.176109   1.083244   2.148423   3.416380
    10  H    3.421628   3.889817   3.416380   2.148423   1.083244
    11  H    2.158863   3.407224   3.893212   3.381874   2.150493
    12  N    4.247000   3.748030   2.472636   1.480000   2.472636
    13  O    4.935104   4.713382   3.567327   2.318706   2.718207
    14  O    4.935104   4.114750   2.718207   2.318706   3.567327
    15  C    5.687655   6.277265   6.363852   5.851807   5.220828
    16  C    5.713311   5.978431   5.781925   5.276369   4.975519
    17  C    7.203761   7.363826   7.046356   6.527206   6.343041
    18  H    6.294283   6.862423   7.070040   6.714204   6.141538
    19  H    6.391869   7.067338   7.078650   6.391491   5.637527
    20  H    5.256561   5.357482   5.227999   4.973934   4.871403
    21  H    5.373829   5.618427   5.240786   4.530337   4.219723
    22  H    7.784074   8.055046   7.700181   7.017275   6.698062
    23  H    7.703124   7.874222   7.691434   7.313151   7.128969
    24  H    7.479181   7.444935   6.959232   6.472101   6.505660
    25  C    4.436523   5.248561   5.561768   5.110648   4.286765
    26  C    5.091055   6.143161   6.673067   6.249071   5.235094
    27  C    4.430466   5.675963   6.424312   6.103194   4.989015
    28  H    3.833541   4.530349   4.984422   4.799070   4.167920
    29  H    3.991820   4.835191   4.996686   4.336162   3.381624
    30  H    5.758663   6.737418   7.346707   7.060204   6.151050
    31  H    5.865901   6.946719   7.355812   6.755029   5.648974
    32  H    4.011834   5.324364   5.972812   5.502813   4.267548
    33  H    3.852417   5.046628   5.961530   5.875455   4.916312
    34  H    5.328100   6.619595   7.436101   7.125230   5.966945
                    6          7          8          9         10
     6  C    0.000000
     7  H    2.157850   0.000000
     8  H    3.407224   2.487053   0.000000
     9  H    3.889817   4.321495   2.506010   0.000000
    10  H    2.176109   4.321495   4.976087   4.292000   0.000000
    11  H    1.086299   2.487053   4.306000   4.976087   2.506010
    12  N    3.748030   5.333000   4.620298   2.666091   2.666091
    13  O    4.114750   5.999040   5.673028   3.884852   2.393100
    14  O    4.713382   5.999040   4.773632   2.393100   3.884852
    15  C    5.127614   5.982502   6.952294   7.079886   5.185539
    16  C    5.210747   6.221810   6.649996   6.321508   4.973899
    17  C    6.700849   7.728169   7.991872   7.452673   6.246469
    18  H    5.911534   6.454333   7.412839   7.744359   6.200823
    19  H    5.639283   6.711352   7.823481   7.827054   5.395079
    20  H    5.013636   5.740263   5.903899   5.686809   5.101019
    21  H    4.690600   6.028368   6.412596   5.800035   4.085386
    22  H    7.113128   8.320499   8.767025   8.164135   6.429226
    23  H    7.331385   8.113004   8.399986   8.083631   7.121655
    24  H    7.027068   8.101661   8.045325   7.217878   6.432827
    25  C    3.887633   4.619641   5.943573   6.421197   4.381568
    26  C    4.558820   4.994908   6.779867   7.610762   5.279856
    27  C    3.999473   4.110700   6.267493   7.436751   5.153699
    28  H    3.622773   3.950828   5.096418   5.797729   4.527797
    29  H    3.159170   4.358150   5.677212   5.907786   3.340390
    30  H    5.423326   5.549618   7.248941   8.229473   6.277392
    31  H    5.126173   5.847125   7.668930   8.308119   5.484125
    32  H    3.325309   3.835538   6.041643   7.029384   4.332522
    33  H    3.769655   3.361766   5.495497   6.935721   5.306012
    34  H    4.931641   4.877411   7.157362   8.458927   6.082872
                   11         12         13         14         15
    11  H    0.000000
    12  N    4.620298   0.000000
    13  O    4.773632   1.229080   0.000000
    14  O    5.673028   1.229080   2.182000   0.000000
    15  C    5.002361   6.445337   6.385591   7.251769   0.000000
    16  C    5.380613   5.617583   5.608729   6.260704   1.529047
    17  C    6.876930   6.627301   6.524776   7.139557   2.546287
    18  H    5.775386   7.368030   7.394989   8.101164   1.098610
    19  H    5.380154   6.865431   6.611462   7.749781   1.098815
    20  H    5.340039   5.429460   5.659802   5.936840   2.152560
    21  H    4.910810   4.726639   4.590837   5.449126   2.152560
    22  H    7.173562   7.032572   6.741799   7.636969   2.803300
    23  H    7.475623   7.525658   7.514764   7.994243   2.803300
    24  H    7.346823   6.376412   6.309730   6.727616   3.500761
    25  C    3.636008   5.987214   6.026154   6.893197   1.527655
    26  C    3.977660   7.236052   7.222262   8.211973   2.554280
    27  C    3.231570   7.277294   7.349057   8.283844   3.916783
    28  H    3.580222   5.811612   6.074434   6.600385   2.155508
    29  H    2.899923   5.159623   5.091651   6.164084   2.155750
    30  H    4.912859   8.065733   8.125429   8.967687   2.776381
    31  H    4.442548   7.610396   7.420581   8.652533   2.776382
    32  H    2.400000   6.644873   6.634712   7.719920   4.228002
    33  H    3.191387   7.164691   7.418842   8.073524   4.228002
    34  H    4.069768   8.308136   8.340999   9.334781   4.730016
                   16         17         18         19         20
    16  C    0.000000
    17  C    1.528984   0.000000
    18  H    2.155655   2.768905   0.000000
    19  H    2.155330   2.768927   1.761001   0.000000
    20  H    1.097551   2.161693   2.501265   3.058264   0.000000
    21  H    1.097550   2.161693   3.058419   2.500372   1.760000
    22  H    2.171275   1.094806   3.122904   2.576230   3.074391
    23  H    2.171275   1.094807   2.576301   3.123412   2.517275
    24  H    2.182503   1.094468   3.775302   3.775138   2.508384
    25  C    2.554280   3.916783   2.155749   2.155507   2.776381
    26  C    3.923128   5.100546   2.781358   2.781503   4.203069
    27  C    5.100547   6.427737   4.204569   4.204484   5.211519
    28  H    2.781505   4.204484   2.504588   3.061615   2.551217
    29  H    2.781359   4.204569   3.061809   2.504588   3.099348
    30  H    4.203070   5.211519   2.551148   3.099973   4.387743
    31  H    4.203070   5.211519   3.099348   2.551217   4.727567
    32  H    5.248682   6.635279   4.755800   4.415730   5.422720
    33  H    5.248682   6.635279   4.416156   4.755776   5.127445
    34  H    6.032715   7.274720   4.888347   4.888413   6.192291
                   21         22         23         24         25
    21  H    0.000000
    22  H    2.517276   0.000000
    23  H    3.074391   1.770001   0.000000
    24  H    2.508384   1.771809   1.771810   0.000000
    25  C    2.776381   4.228003   4.228002   4.730016   0.000000
    26  C    4.203069   5.248682   5.248681   6.032715   1.529046
    27  C    5.211519   6.635279   6.635279   7.274720   2.546287
    28  H    3.099973   4.755778   4.415731   4.888414   1.098815
    29  H    2.551148   4.416158   4.755801   4.888348   1.098611
    30  H    4.727567   5.422721   5.127446   6.192291   2.152560
    31  H    4.387743   5.127446   5.422721   6.192291   2.152560
    32  H    5.127445   6.782504   7.009655   7.408767   2.803300
    33  H    5.422720   7.009655   6.782503   7.408766   2.803299
    34  H    6.192291   7.408767   7.408767   8.180649   3.500761
                   26         27         28         29         30
    26  C    0.000000
    27  C    1.528985   0.000000
    28  H    2.155329   2.768927   0.000000
    29  H    2.155655   2.768905   1.761001   0.000000
    30  H    1.097550   2.161692   2.500372   3.058419   0.000000
    31  H    1.097550   2.161692   3.058264   2.501265   1.760000
    32  H    2.171275   1.094807   3.123411   2.576300   3.074390
    33  H    2.171275   1.094806   2.576228   3.122903   2.517275
    34  H    2.182504   1.094468   3.775137   3.775302   2.508383
                   31         32         33         34
    31  H    0.000000
    32  H    2.517275   0.000000
    33  H    3.074390   1.770000   0.000000
    34  H    2.508383   1.771810   1.771810   0.000000
 Stoichiometry    C12H19NO2
 Framework group  C1[X(C12H19NO2)]
 Deg. of freedom    96
 Full point group                 C1      NOp   1
 Largest Abelian subgroup         C1      NOp   1
 Largest concise Abelian subgroup C1      NOp   1
                         Standard orientation:                         
 ---------------------------------------------------------------------
 Center     Atomic      Atomic             Coordinates (Angstroms)
 Number     Number       Type             X           Y           Z
 ---------------------------------------------------------------------
      1          6           0       -1.174690   -2.385311    0.782956
      2          6           0       -2.113234   -1.745450    1.599185
      3          6           0       -2.758418   -0.584148    1.163679
      4          6           0       -2.439540   -0.087950   -0.099410
      5          6           0       -1.509037   -0.702654   -0.935826
      6          6           0       -0.876113   -1.862793   -0.479719
      7          1           0       -0.678257   -3.286987    1.129269
      8          1           0       -2.347092   -2.148988    2.580263
      9          1           0       -3.489059   -0.068666    1.775118
     10          1           0       -1.296769   -0.276609   -1.908886
     11          1           0       -0.147651   -2.357609   -1.115758
     12          7           0       -3.116078    1.140853   -0.571366
     13          8           0       -2.817541    1.557929   -1.688309
     14          8           0       -3.932075    1.663644    0.184594
     15          6           0        3.294353    1.064712    0.094178
     16          6           0        2.300763    2.142269    0.529651
     17          6           0        2.944821    3.523009    0.658252
     18          1           0        4.118531    1.020346    0.819235
     19          1           0        3.739643    1.353668   -0.867912
     20          1           0        1.856457    1.850692    1.489960
     21          1           0        1.478756    2.183942   -0.196423
     22          1           0        3.372478    3.839249   -0.298671
     23          1           0        3.752324    3.504106    1.397294
     24          1           0        2.216715    4.278121    0.970546
     25          6           0        2.665426   -0.321106   -0.038814
     26          6           0        3.659016   -1.398662   -0.474287
     27          6           0        3.014959   -2.779404   -0.602888
     28          1           0        2.220136   -0.610063    0.923275
     29          1           0        1.841248   -0.276740   -0.763871
     30          1           0        4.481023   -1.440337    0.251787
     31          1           0        4.103322   -1.107087   -1.434596
     32          1           0        2.207456   -2.760500   -1.341930
     33          1           0        2.587301   -3.095643    0.354035
     34          1           0        3.743065   -3.534516   -0.915182
 ---------------------------------------------------------------------
 Rotational constants (GHZ):           0.5825926           0.2888768           0.2206055
 Leave Link  202 at Thu May  6 12:36:44 2021, MaxMem=   524288000 cpu:               0.1 elap:               0.1
 (Enter /opt/gaussian/g16_legacy/l301.exe)
 Standard basis: 6-31G(d) (6D, 7F)
 Ernie: Thresh=  0.10000D-02 Tol=  0.10000D-05 Strict=F.
 There are   263 symmetry adapted cartesian basis functions of A   symmetry.
 There are   263 symmetry adapted basis functions of A   symmetry.
   263 basis functions,   496 primitive gaussians,   263 cartesian basis functions
    57 alpha electrons       57 beta electrons
       nuclear repulsion energy       942.5064407695 Hartrees.
 IExCor=    0 DFT=F Ex=HF Corr=None ExCW=0 ScaHFX=  1.000000
 ScaDFX=  1.000000  1.000000  1.000000  1.000000 ScalE2=  1.000000  1.000000
 IRadAn=      5 IRanWt=     -1 IRanGd=            0 ICorTp=0 IEmpDi=  4
 NAtoms=   34 NActive=   34 NUniq=   34 SFac= 1.00D+00 NAtFMM=   60 NAOKFM=F Big=F
 Integral buffers will be    131072 words long.
 Raffenetti 1 integral format.
 Two-electron integral symmetry is turned on.
 Leave Link  301 at Thu May  6 12:36:44 2021, MaxMem=   524288000 cpu:               0.2 elap:               0.2
 (Enter /opt/gaussian/g16_legacy/l302.exe)
 NPDir=0 NMtPBC=     1 NCelOv=     1 NCel=       1 NClECP=     1 NCelD=      1
         NCelK=      1 NCelE2=     1 NClLst=     1 CellRange=     0.0.
 One-electron integrals computed using PRISM.
 One-electron integral symmetry used in STVInt
 NBasis=   263 RedAO= T EigKep=  4.76D-04  NBF=   263
 NBsUse=   263 1.00D-06 EigRej= -1.00D+00 NBFU=   263
 Leave Link  302 at Thu May  6 12:36:44 2021, MaxMem=   524288000 cpu:               0.7 elap:               0.6
 (Enter /opt/gaussian/g16_legacy/l303.exe)
 DipDrv:  MaxL=1.
 Leave Link  303 at Thu May  6 12:36:45 2021, MaxMem=   524288000 cpu:               0.1 elap:               0.1
 (Enter /opt/gaussian/g16_legacy/l401.exe)
 ExpMin= 1.61D-01 ExpMax= 5.48D+03 ExpMxC= 8.25D+02 IAcc=3 IRadAn=         5 AccDes= 0.00D+00
 Harris functional with IExCor=  205 and IRadAn=       5 diagonalized for initial guess.
 HarFok:  IExCor=  205 AccDes= 0.00D+00 IRadAn=         5 IDoV= 1 UseB2=F ITyADJ=14
 ICtDFT=  3500011 ScaDFX=  1.000000  1.000000  1.000000  1.000000
 FoFCou: FMM=F IPFlag=           0 FMFlag=      100000 FMFlg1=           0
         NFxFlg=           0 DoJE=T BraDBF=F KetDBF=T FulRan=T
         wScrn=  0.000000 ICntrl=       500 IOpCl=  0 I1Cent=   200000004 NGrid=           0
         NMat0=    1 NMatS0=      1 NMatT0=    0 NMatD0=    1 NMtDS0=    0 NMtDT0=    0
 Petite list used in FoFCou.
 Harris En= -670.655863684631    
 JPrj=0 DoOrth=F DoCkMO=F.
 Leave Link  401 at Thu May  6 12:36:52 2021, MaxMem=   524288000 cpu:              14.7 elap:               7.5
 (Enter /opt/gaussian/g16_legacy/l502.exe)
 Integral symmetry usage will be decided dynamically.
 Closed shell SCF:
 Using DIIS extrapolation, IDIIS=  1040.
 NGot=   524288000 LenX=   524144919 LenY=   524075309
 Requested convergence on RMS density matrix=1.00D-08 within 128 cycles.
 Requested convergence on MAX density matrix=1.00D-06.
 Requested convergence on             energy=1.00D-06.
 No special actions if energy rises.
 Fock matrices will be formed incrementally for  20 cycles.
 Integral accuracy reduced to 1.0D-05 until final iterations.

 Cycle   1  Pass 0  IDiag  1:
 FoFJK:  IHMeth= 1 ICntrl=       0 DoSepK=F KAlg= 0 I1Cent=           0 FoldK=F
 IRaf= 810000000 NMat=       1 IRICut=       1 DoRegI=T DoRafI=F ISym2E= 0 IDoP0=0 IntGTp=1.
 FoFCou: FMM=F IPFlag=           0 FMFlag=      100000 FMFlg1=           0
         NFxFlg=           0 DoJE=F BraDBF=F KetDBF=F FulRan=T
         wScrn=  0.000000 ICntrl=         0 IOpCl=  0 I1Cent=           0 NGrid=           0
         NMat0=    1 NMatS0=      1 NMatT0=    0 NMatD0=    1 NMtDS0=    0 NMtDT0=    0
 Symmetry not used in FoFCou.
 E= -668.741216695593    
 DIIS: error= 5.99D-02 at cycle   1 NSaved=   1.
 NSaved= 1 IEnMin= 1 EnMin= -668.741216695593     IErMin= 1 ErrMin= 5.99D-02
 ErrMax= 5.99D-02  0.00D+00 EMaxC= 1.00D-01 BMatC= 1.17D+00 BMatP= 1.17D+00
 IDIUse=3 WtCom= 4.01D-01 WtEn= 5.99D-01
 Coeff-Com:  0.100D+01
 Coeff-En:   0.100D+01
 Coeff:      0.100D+01
 Gap=     0.556 Goal=   None    Shift=    0.000
 GapD=    0.556 DampG=2.000 DampE=0.500 DampFc=1.0000 IDamp=-1.
 RMSDP=4.59D-03 MaxDP=1.19D-01              OVMax= 1.50D-01

 Cycle   2  Pass 0  IDiag  1:
 RMSU=  4.47D-03    CP:  9.48D-01
 E= -669.357487220841     Delta-E=       -0.616270525247 Rises=F Damp=F
 DIIS: error= 2.63D-02 at cycle   2 NSaved=   2.
 NSaved= 2 IEnMin= 2 EnMin= -669.357487220841     IErMin= 2 ErrMin= 2.63D-02
 ErrMax= 2.63D-02  0.00D+00 EMaxC= 1.00D-01 BMatC= 2.18D-01 BMatP= 1.17D+00
 IDIUse=3 WtCom= 7.37D-01 WtEn= 2.63D-01
 Coeff-Com:  0.247D+00 0.753D+00
 Coeff-En:   0.000D+00 0.100D+01
 Coeff:      0.182D+00 0.818D+00
 Gap=     0.570 Goal=   None    Shift=    0.000
 RMSDP=1.81D-03 MaxDP=7.87D-02 DE=-6.16D-01 OVMax= 1.22D-01

 Cycle   3  Pass 0  IDiag  1:
 RMSU=  1.44D-03    CP:  9.57D-01  7.56D-01
 E= -669.507825707555     Delta-E=       -0.150338486714 Rises=F Damp=F
 DIIS: error= 1.27D-02 at cycle   3 NSaved=   3.
 NSaved= 3 IEnMin= 3 EnMin= -669.507825707555     IErMin= 3 ErrMin= 1.27D-02
 ErrMax= 1.27D-02  0.00D+00 EMaxC= 1.00D-01 BMatC= 3.51D-02 BMatP= 2.18D-01
 IDIUse=3 WtCom= 8.73D-01 WtEn= 1.27D-01
 Coeff-Com: -0.949D-02 0.265D+00 0.745D+00
 Coeff-En:   0.000D+00 0.000D+00 0.100D+01
 Coeff:     -0.828D-02 0.231D+00 0.777D+00
 Gap=     0.425 Goal=   None    Shift=    0.000
 RMSDP=5.87D-04 MaxDP=3.18D-02 DE=-1.50D-01 OVMax= 4.91D-02

 Cycle   4  Pass 0  IDiag  1:
 RMSU=  3.98D-04    CP:  9.56D-01  8.32D-01  8.14D-01
 E= -669.532607988021     Delta-E=       -0.024782280466 Rises=F Damp=F
 DIIS: error= 4.06D-03 at cycle   4 NSaved=   4.
 NSaved= 4 IEnMin= 4 EnMin= -669.532607988021     IErMin= 4 ErrMin= 4.06D-03
 ErrMax= 4.06D-03  0.00D+00 EMaxC= 1.00D-01 BMatC= 2.78D-03 BMatP= 3.51D-02
 IDIUse=3 WtCom= 9.59D-01 WtEn= 4.06D-02
 Coeff-Com: -0.132D-01 0.429D-01 0.290D+00 0.681D+00
 Coeff-En:   0.000D+00 0.000D+00 0.000D+00 0.100D+01
 Coeff:     -0.127D-01 0.412D-01 0.278D+00 0.694D+00
 Gap=     0.411 Goal=   None    Shift=    0.000
 RMSDP=1.69D-04 MaxDP=7.56D-03 DE=-2.48D-02 OVMax= 1.40D-02

 Cycle   5  Pass 0  IDiag  1:
 RMSU=  9.73D-05    CP:  9.55D-01  8.34D-01  8.83D-01  7.64D-01
 E= -669.534876368672     Delta-E=       -0.002268380651 Rises=F Damp=F
 DIIS: error= 3.93D-04 at cycle   5 NSaved=   5.
 NSaved= 5 IEnMin= 5 EnMin= -669.534876368672     IErMin= 5 ErrMin= 3.93D-04
 ErrMax= 3.93D-04  0.00D+00 EMaxC= 1.00D-01 BMatC= 5.80D-05 BMatP= 2.78D-03
 IDIUse=3 WtCom= 9.96D-01 WtEn= 3.93D-03
 Coeff-Com:  0.201D-02-0.190D-01-0.758D-01-0.337D-01 0.113D+01
 Coeff-En:   0.000D+00 0.000D+00 0.000D+00 0.000D+00 0.100D+01
 Coeff:      0.201D-02-0.190D-01-0.755D-01-0.336D-01 0.113D+01
 Gap=     0.413 Goal=   None    Shift=    0.000
 RMSDP=5.30D-05 MaxDP=1.15D-03 DE=-2.27D-03 OVMax= 4.62D-03

 Cycle   6  Pass 0  IDiag  1:
 RMSU=  2.45D-05    CP:  9.55D-01  8.37D-01  8.97D-01  8.48D-01  1.25D+00
 E= -669.534984283425     Delta-E=       -0.000107914753 Rises=F Damp=F
 DIIS: error= 1.40D-04 at cycle   6 NSaved=   6.
 NSaved= 6 IEnMin= 6 EnMin= -669.534984283425     IErMin= 6 ErrMin= 1.40D-04
 ErrMax= 1.40D-04  0.00D+00 EMaxC= 1.00D-01 BMatC= 5.79D-06 BMatP= 5.80D-05
 IDIUse=3 WtCom= 9.99D-01 WtEn= 1.40D-03
 Coeff-Com:  0.127D-02-0.657D-02-0.342D-01-0.531D-01 0.145D+00 0.948D+00
 Coeff-En:   0.000D+00 0.000D+00 0.000D+00 0.000D+00 0.000D+00 0.100D+01
 Coeff:      0.127D-02-0.656D-02-0.342D-01-0.530D-01 0.145D+00 0.948D+00
 Gap=     0.413 Goal=   None    Shift=    0.000
 RMSDP=1.73D-05 MaxDP=4.41D-04 DE=-1.08D-04 OVMax= 1.62D-03

 Cycle   7  Pass 0  IDiag  1:
 RMSU=  8.65D-06    CP:  9.55D-01  8.37D-01  9.00D-01  8.60D-01  1.38D+00
                    CP:  1.17D+00
 E= -669.534998810425     Delta-E=       -0.000014527000 Rises=F Damp=F
 DIIS: error= 1.28D-04 at cycle   7 NSaved=   7.
 NSaved= 7 IEnMin= 7 EnMin= -669.534998810425     IErMin= 7 ErrMin= 1.28D-04
 ErrMax= 1.28D-04  0.00D+00 EMaxC= 1.00D-01 BMatC= 1.09D-06 BMatP= 5.79D-06
 IDIUse=3 WtCom= 9.99D-01 WtEn= 1.28D-03
 Coeff-Com: -0.247D-03 0.235D-02 0.928D-02 0.594D-02-0.149D+00 0.856D-02
 Coeff-Com:  0.112D+01
 Coeff-En:   0.000D+00 0.000D+00 0.000D+00 0.000D+00 0.000D+00 0.000D+00
 Coeff-En:   0.100D+01
 Coeff:     -0.247D-03 0.235D-02 0.926D-02 0.594D-02-0.149D+00 0.855D-02
 Coeff:      0.112D+01
 Gap=     0.413 Goal=   None    Shift=    0.000
 RMSDP=8.66D-06 MaxDP=2.66D-04 DE=-1.45D-05 OVMax= 1.30D-03

 Initial convergence to 1.0D-05 achieved.  Increase integral accuracy.
 Cycle   8  Pass 1  IDiag  1:
 E= -669.535003144901     Delta-E=       -0.000004334476 Rises=F Damp=F
 DIIS: error= 4.55D-05 at cycle   1 NSaved=   1.
 NSaved= 1 IEnMin= 1 EnMin= -669.535003144901     IErMin= 1 ErrMin= 4.55D-05
 ErrMax= 4.55D-05  0.00D+00 EMaxC= 1.00D-01 BMatC= 3.77D-07 BMatP= 3.77D-07
 IDIUse=1 WtCom= 1.00D+00 WtEn= 0.00D+00
 Coeff-Com:  0.100D+01
 Coeff:      0.100D+01
 Gap=     0.413 Goal=   None    Shift=    0.000
 RMSDP=8.66D-06 MaxDP=2.66D-04 DE=-4.33D-06 OVMax= 5.22D-04

 Cycle   9  Pass 1  IDiag  1:
 RMSU=  1.11D-05    CP:  1.00D+00
 E= -669.535004129287     Delta-E=       -0.000000984386 Rises=F Damp=F
 DIIS: error= 4.71D-05 at cycle   2 NSaved=   2.
 NSaved= 2 IEnMin= 2 EnMin= -669.535004129287     IErMin= 1 ErrMin= 4.55D-05
 ErrMax= 4.71D-05  0.00D+00 EMaxC= 1.00D-01 BMatC= 1.09D-07 BMatP= 3.77D-07
 IDIUse=1 WtCom= 1.00D+00 WtEn= 0.00D+00
 Coeff-Com: -0.593D-02 0.101D+01
 Coeff:     -0.593D-02 0.101D+01
 Gap=     0.413 Goal=   None    Shift=    0.000
 RMSDP=2.28D-06 MaxDP=5.60D-05 DE=-9.84D-07 OVMax= 3.78D-04

 Cycle  10  Pass 1  IDiag  1:
 RMSU=  2.06D-06    CP:  1.00D+00  1.09D+00
 E= -669.535004518707     Delta-E=       -0.000000389421 Rises=F Damp=F
 DIIS: error= 2.11D-05 at cycle   3 NSaved=   3.
 NSaved= 3 IEnMin= 3 EnMin= -669.535004518707     IErMin= 3 ErrMin= 2.11D-05
 ErrMax= 2.11D-05  0.00D+00 EMaxC= 1.00D-01 BMatC= 4.96D-08 BMatP= 1.09D-07
 IDIUse=1 WtCom= 1.00D+00 WtEn= 0.00D+00
 Coeff-Com: -0.314D+00 0.105D+00 0.121D+01
 Coeff:     -0.314D+00 0.105D+00 0.121D+01
 Gap=     0.413 Goal=   None    Shift=    0.000
 RMSDP=2.28D-06 MaxDP=5.60D-05 DE=-3.89D-07 OVMax= 3.46D-04

 Cycle  11  Pass 1  IDiag  1:
 RMSU=  1.37D-06    CP:  1.00D+00  1.16D+00  1.78D+00
 E= -669.535004766587     Delta-E=       -0.000000247879 Rises=F Damp=F
 DIIS: error= 1.30D-05 at cycle   4 NSaved=   4.
 NSaved= 4 IEnMin= 4 EnMin= -669.535004766587     IErMin= 4 ErrMin= 1.30D-05
 ErrMax= 1.30D-05  0.00D+00 EMaxC= 1.00D-01 BMatC= 8.42D-09 BMatP= 4.96D-08
 IDIUse=1 WtCom= 1.00D+00 WtEn= 0.00D+00
 Coeff-Com:  0.179D-01-0.353D+00-0.877D-01 0.142D+01
 Coeff:      0.179D-01-0.353D+00-0.877D-01 0.142D+01
 Gap=     0.413 Goal=   None    Shift=    0.000
 RMSDP=1.62D-06 MaxDP=3.99D-05 DE=-2.48D-07 OVMax= 2.56D-04

 Cycle  12  Pass 1  IDiag  1:
 RMSU=  2.01D-07    CP:  1.00D+00  1.19D+00  2.49D+00  1.47D+00
 E= -669.535004822745     Delta-E=       -0.000000056158 Rises=F Damp=F
 DIIS: error= 1.47D-06 at cycle   5 NSaved=   5.
 NSaved= 5 IEnMin= 5 EnMin= -669.535004822745     IErMin= 5 ErrMin= 1.47D-06
 ErrMax= 1.47D-06  0.00D+00 EMaxC= 1.00D-01 BMatC= 4.96D-10 BMatP= 8.42D-09
 IDIUse=1 WtCom= 1.00D+00 WtEn= 0.00D+00
 Coeff-Com:  0.177D-01-0.133D+00-0.669D-01 0.519D+00 0.663D+00
 Coeff:      0.177D-01-0.133D+00-0.669D-01 0.519D+00 0.663D+00
 Gap=     0.413 Goal=   None    Shift=    0.000
 RMSDP=9.22D-08 MaxDP=2.89D-06 DE=-5.62D-08 OVMax= 1.09D-05

 Cycle  13  Pass 1  IDiag  1:
 RMSU=  6.90D-08    CP:  1.00D+00  1.19D+00  2.50D+00  1.50D+00  1.02D+00
 E= -669.535004823308     Delta-E=       -0.000000000563 Rises=F Damp=F
 DIIS: error= 8.56D-07 at cycle   6 NSaved=   6.
 NSaved= 6 IEnMin= 6 EnMin= -669.535004823308     IErMin= 6 ErrMin= 8.56D-07
 ErrMax= 8.56D-07  0.00D+00 EMaxC= 1.00D-01 BMatC= 4.06D-11 BMatP= 4.96D-10
 IDIUse=1 WtCom= 1.00D+00 WtEn= 0.00D+00
 Coeff-Com: -0.310D-02 0.596D-01 0.152D-01-0.246D+00-0.619D-01 0.124D+01
 Coeff:     -0.310D-02 0.596D-01 0.152D-01-0.246D+00-0.619D-01 0.124D+01
 Gap=     0.413 Goal=   None    Shift=    0.000
 RMSDP=5.76D-08 MaxDP=1.61D-06 DE=-5.63D-10 OVMax= 7.12D-06

 Cycle  14  Pass 1  IDiag  1:
 RMSU=  2.66D-08    CP:  1.00D+00  1.19D+00  2.52D+00  1.52D+00  1.19D+00
                    CP:  1.32D+00
 E= -669.535004823420     Delta-E=       -0.000000000112 Rises=F Damp=F
 DIIS: error= 2.04D-07 at cycle   7 NSaved=   7.
 NSaved= 7 IEnMin= 7 EnMin= -669.535004823420     IErMin= 7 ErrMin= 2.04D-07
 ErrMax= 2.04D-07  0.00D+00 EMaxC= 1.00D-01 BMatC= 7.80D-12 BMatP= 4.06D-11
 IDIUse=1 WtCom= 1.00D+00 WtEn= 0.00D+00
 Coeff-Com: -0.253D-02 0.243D-01 0.112D-01-0.996D-01-0.121D+00 0.260D+00
 Coeff-Com:  0.927D+00
 Coeff:     -0.253D-02 0.243D-01 0.112D-01-0.996D-01-0.121D+00 0.260D+00
 Coeff:      0.927D+00
 Gap=     0.413 Goal=   None    Shift=    0.000
 RMSDP=1.67D-08 MaxDP=6.24D-07 DE=-1.12D-10 OVMax= 1.45D-06

 Cycle  15  Pass 1  IDiag  1:
 RMSU=  9.16D-09    CP:  1.00D+00  1.19D+00  2.52D+00  1.52D+00  1.21D+00
                    CP:  1.46D+00  1.20D+00
 E= -669.535004823480     Delta-E=       -0.000000000059 Rises=F Damp=F
 DIIS: error= 7.79D-08 at cycle   8 NSaved=   8.
 NSaved= 8 IEnMin= 8 EnMin= -669.535004823480     IErMin= 8 ErrMin= 7.79D-08
 ErrMax= 7.79D-08  0.00D+00 EMaxC= 1.00D-01 BMatC= 6.55D-13 BMatP= 7.80D-12
 IDIUse=1 WtCom= 1.00D+00 WtEn= 0.00D+00
 Coeff-Com:  0.839D-03-0.124D-01-0.329D-02 0.498D-01 0.124D-01-0.170D+00
 Coeff-Com: -0.198D+00 0.132D+01
 Coeff:      0.839D-03-0.124D-01-0.329D-02 0.498D-01 0.124D-01-0.170D+00
 Coeff:     -0.198D+00 0.132D+01
 Gap=     0.413 Goal=   None    Shift=    0.000
 RMSDP=6.95D-09 MaxDP=3.14D-07 DE=-5.93D-11 OVMax= 8.46D-07

 SCF Done:  E(RHF) =  -669.535004823     A.U. after   15 cycles
            NFock= 15  Conv=0.69D-08     -V/T= 2.0024
 KE= 6.679649280016D+02 PE=-3.447945835419D+03 EE= 1.167939461825D+03
 Leave Link  502 at Thu May  6 12:37:47 2021, MaxMem=   524288000 cpu:             108.2 elap:              54.9
 (Enter /opt/gaussian/g16_legacy/l801.exe)
 ExpMin= 1.61D-01 ExpMax= 5.48D+03 ExpMxC= 8.25D+02 IAcc=3 IRadAn=         5 AccDes= 0.00D+00
 HarFok:  IExCor=  205 AccDes= 0.00D+00 IRadAn=         5 IDoV=-2 UseB2=F ITyADJ=14
 ICtDFT= 12500011 ScaDFX=  1.000000  1.000000  1.000000  1.000000
 Largest valence mixing into a core orbital is  1.97D-04
 Largest core mixing into a valence orbital is  3.99D-05
 Range of M.O.s used for correlation:    16   263
 NBasis=   263 NAE=    57 NBE=    57 NFC=    15 NFV=     0
 NROrb=    248 NOA=    42 NOB=    42 NVA=   206 NVB=   206
 Leave Link  801 at Thu May  6 12:37:49 2021, MaxMem=   524288000 cpu:               2.1 elap:               1.3
 (Enter /opt/gaussian/g16_legacy/l906.exe)
 FulOut=F Deriv=F AODrv=F NAtomX=    34
   MMem=         113  MDisk=          42 MDiskD=          42
  W3Min=     2275476 MinDsk=     2420380 NBas6D=         263
 NBas2D=       35121    NTT=       34716    LW2=     2000000
    MDV=   523918488 MDiskM=       27562 NBas2p=       26544
 Fully direct method using O(OVN) memory.
 IMap=   1   2   3   4   5   6   7   8   9  10  11  12  13  14  15  16  17  18  19  20
 IMap=  21  22  23  24  25  26  27  28  29  30  31  32  33  34  35  36  37  38  39  40
 IMap=  41  42
 JobTyp=1 Pass  1:  I=   1 to  42 NPSUse=  2 ParTrn=T ParDer=T DoDerP=F.
 Spin components of T(2) and E(2):
     alpha-alpha T2 =       0.9511496079D-01 E2=     -0.2722744988D+00
     alpha-beta  T2 =       0.5264444737D+00 E2=     -0.1548451829D+01
     beta-beta   T2 =       0.9511496079D-01 E2=     -0.2722744988D+00
 The integrals were generated   1 times.
 ANorm=    0.1310219216D+01
 E2 =    -0.2093000827D+01 EUMP2 =    -0.67162800565022D+03
 Leave Link  906 at Thu May  6 12:39:09 2021, MaxMem=   524288000 cpu:             159.3 elap:              80.3
 (Enter /opt/gaussian/g16_legacy/l601.exe)
 Copying SCF densities to generalized density rwf, IOpCl= 0 IROHF=0.

 **********************************************************************

            Population analysis using the SCF density.

 **********************************************************************

 Orbital symmetries:
       Occupied  (A) (A) (A) (A) (A) (A) (A) (A) (A) (A) (A) (A)
                 (A) (A) (A) (A) (A) (A) (A) (A) (A) (A) (A) (A)
                 (A) (A) (A) (A) (A) (A) (A) (A) (A) (A) (A) (A)
                 (A) (A) (A) (A) (A) (A) (A) (A) (A) (A) (A) (A)
                 (A) (A) (A) (A) (A) (A) (A) (A) (A)
       Virtual   (A) (A) (A) (A) (A) (A) (A) (A) (A) (A) (A) (A)
                 (A) (A) (A) (A) (A) (A) (A) (A) (A) (A) (A) (A)
                 (A) (A) (A) (A) (A) (A) (A) (A) (A) (A) (A) (A)
                 (A) (A) (A) (A) (A) (A) (A) (A) (A) (A) (A) (A)
                 (A) (A) (A) (A) (A) (A) (A) (A) (A) (A) (A) (A)
                 (A) (A) (A) (A) (A) (A) (A) (A) (A) (A) (A) (A)
                 (A) (A) (A) (A) (A) (A) (A) (A) (A) (A) (A) (A)
                 (A) (A) (A) (A) (A) (A) (A) (A) (A) (A) (A) (A)
                 (A) (A) (A) (A) (A) (A) (A) (A) (A) (A) (A) (A)
                 (A) (A) (A) (A) (A) (A) (A) (A) (A) (A) (A) (A)
                 (A) (A) (A) (A) (A) (A) (A) (A) (A) (A) (A) (A)
                 (A) (A) (A) (A) (A) (A) (A) (A) (A) (A) (A) (A)
                 (A) (A) (A) (A) (A) (A) (A) (A) (A) (A) (A) (A)
                 (A) (A) (A) (A) (A) (A) (A) (A) (A) (A) (A) (A)
                 (A) (A) (A) (A) (A) (A) (A) (A) (A) (A) (A) (A)
                 (A) (A) (A) (A) (A) (A) (A) (A) (A) (A) (A) (A)
                 (A) (A) (A) (A) (A) (A) (A) (A) (A) (A) (A) (A)
                 (A) (A)
 The electronic state is 1-A.
 Alpha  occ. eigenvalues --  -20.60756 -20.60751 -15.85808 -11.31167 -11.27718
 Alpha  occ. eigenvalues --  -11.27713 -11.27446 -11.26751 -11.26699 -11.22251
 Alpha  occ. eigenvalues --  -11.22099 -11.21824 -11.21691 -11.21617 -11.21061
 Alpha  occ. eigenvalues --   -1.59831  -1.39385  -1.19329  -1.08837  -1.08715
 Alpha  occ. eigenvalues --   -1.04735  -1.03948  -0.96423  -0.95562  -0.87449
 Alpha  occ. eigenvalues --   -0.86130  -0.82403  -0.80035  -0.78593  -0.77440
 Alpha  occ. eigenvalues --   -0.72027  -0.71152  -0.70433  -0.65486  -0.64979
 Alpha  occ. eigenvalues --   -0.64748  -0.62122  -0.61328  -0.59802  -0.58005
 Alpha  occ. eigenvalues --   -0.55756  -0.55214  -0.53174  -0.53035  -0.52994
 Alpha  occ. eigenvalues --   -0.52670  -0.50384  -0.48791  -0.48783  -0.48315
 Alpha  occ. eigenvalues --   -0.47050  -0.46128  -0.46028  -0.44792  -0.44170
 Alpha  occ. eigenvalues --   -0.37290  -0.36276
 Alpha virt. eigenvalues --    0.05052   0.11258   0.16463   0.19878   0.22839
 Alpha virt. eigenvalues --    0.24027   0.25061   0.26206   0.27008   0.28139
 Alpha virt. eigenvalues --    0.29391   0.29657   0.31318   0.31809   0.32134
 Alpha virt. eigenvalues --    0.32720   0.33714   0.34329   0.34604   0.34704
 Alpha virt. eigenvalues --    0.35523   0.36185   0.37038   0.38743   0.40043
 Alpha virt. eigenvalues --    0.40272   0.43611   0.44792   0.45230   0.45833
 Alpha virt. eigenvalues --    0.46832   0.47636   0.49294   0.51228   0.56884
 Alpha virt. eigenvalues --    0.66443   0.67365   0.68779   0.69335   0.70439
 Alpha virt. eigenvalues --    0.71065   0.73099   0.74624   0.76153   0.77503
 Alpha virt. eigenvalues --    0.77833   0.78287   0.78796   0.79690   0.80073
 Alpha virt. eigenvalues --    0.80559   0.81495   0.84118   0.85005   0.85909
 Alpha virt. eigenvalues --    0.86435   0.87151   0.89007   0.91018   0.93710
 Alpha virt. eigenvalues --    0.95816   0.96007   0.96992   0.98759   1.00535
 Alpha virt. eigenvalues --    1.01392   1.01934   1.04193   1.05672   1.06666
 Alpha virt. eigenvalues --    1.06970   1.08618   1.08781   1.10000   1.10771
 Alpha virt. eigenvalues --    1.13009   1.14597   1.15644   1.16489   1.17057
 Alpha virt. eigenvalues --    1.17631   1.18467   1.18880   1.19647   1.20423
 Alpha virt. eigenvalues --    1.20833   1.21288   1.21524   1.22374   1.23248
 Alpha virt. eigenvalues --    1.23536   1.23944   1.24746   1.25398   1.27409
 Alpha virt. eigenvalues --    1.28092   1.29457   1.30651   1.31347   1.33978
 Alpha virt. eigenvalues --    1.34772   1.39729   1.41165   1.46729   1.47215
 Alpha virt. eigenvalues --    1.52589   1.53526   1.55367   1.60323   1.64892
 Alpha virt. eigenvalues --    1.65449   1.66765   1.66931   1.67283   1.67960
 Alpha virt. eigenvalues --    1.71166   1.72452   1.72707   1.73341   1.73583
 Alpha virt. eigenvalues --    1.75596   1.79204   1.81060   1.92348   1.97020
 Alpha virt. eigenvalues --    1.99373   1.99988   2.04467   2.04682   2.05090
 Alpha virt. eigenvalues --    2.10076   2.12516   2.12827   2.13428   2.14484
 Alpha virt. eigenvalues --    2.17422   2.21510   2.21796   2.22316   2.24551
 Alpha virt. eigenvalues --    2.25354   2.25676   2.27324   2.27875   2.32190
 Alpha virt. eigenvalues --    2.33531   2.33812   2.35610   2.36560   2.37872
 Alpha virt. eigenvalues --    2.39436   2.42680   2.43243   2.43385   2.44847
 Alpha virt. eigenvalues --    2.45929   2.46948   2.56389   2.56701   2.58217
 Alpha virt. eigenvalues --    2.58722   2.59165   2.59719   2.66688   2.67316
 Alpha virt. eigenvalues --    2.67346   2.70340   2.76622   2.77195   2.79581
 Alpha virt. eigenvalues --    2.81452   2.83534   2.90955   2.91979   2.92048
 Alpha virt. eigenvalues --    2.92658   2.94990   2.98332   2.99963   3.04739
 Alpha virt. eigenvalues --    3.04966   3.07102   3.10669   3.13442   3.18460
 Alpha virt. eigenvalues --    3.23579   3.24562   3.27656   3.43115   3.52944
 Alpha virt. eigenvalues --    3.77040   4.13062   4.28665   4.37861   4.48348
 Alpha virt. eigenvalues --    4.51266   4.53062   4.55712   4.62379   4.71964
 Alpha virt. eigenvalues --    4.72356   4.77027   4.79659   4.87518   4.99616
 Alpha virt. eigenvalues --    5.09119
          Condensed to atoms (all electrons):
               1          2          3          4          5          6
     1  C    4.877927   0.541537  -0.045677  -0.028815  -0.044748   0.543267
     2  C    0.541537   4.933484   0.522674  -0.040181  -0.030372  -0.043495
     3  C   -0.045677   0.522674   4.919648   0.548662  -0.053129  -0.030054
     4  C   -0.028815  -0.040181   0.548662   4.820411   0.548135  -0.039887
     5  C   -0.044748  -0.030372  -0.053129   0.548135   4.923259   0.520182
     6  C    0.543267  -0.043495  -0.030054  -0.039887   0.520182   4.934145
     7  H    0.381096  -0.028142   0.002160   0.000221   0.002162  -0.027616
     8  H   -0.027749   0.382589  -0.027402   0.001559   0.000203   0.002352
     9  H    0.001932  -0.024151   0.368594  -0.019627   0.002579  -0.000067
    10  H    0.001914  -0.000056   0.002558  -0.019483   0.368470  -0.024189
    11  H   -0.026596   0.002295   0.000210   0.001523  -0.027457   0.380215
    12  N    0.000014   0.001505  -0.044563   0.244195  -0.044538   0.001475
    13  O   -0.000003  -0.000028   0.003713  -0.087998   0.004052   0.000773
    14  O   -0.000003   0.000774   0.004032  -0.087926   0.003725  -0.000029
    15  C    0.000004   0.000000  -0.000000  -0.000001   0.000004   0.000030
    16  C    0.000000  -0.000000   0.000000  -0.000010  -0.000012  -0.000004
    17  C   -0.000000  -0.000000  -0.000000   0.000000   0.000000   0.000000
    18  H   -0.000000   0.000000   0.000000  -0.000000  -0.000000  -0.000001
    19  H   -0.000000  -0.000000   0.000000  -0.000000  -0.000001  -0.000001
    20  H   -0.000000   0.000001   0.000002   0.000004  -0.000001  -0.000001
    21  H   -0.000001  -0.000002   0.000000   0.000038   0.000140   0.000003
    22  H    0.000000   0.000000   0.000000  -0.000000  -0.000000  -0.000000
    23  H    0.000000  -0.000000   0.000000  -0.000000   0.000000  -0.000000
    24  H    0.000000   0.000000  -0.000000  -0.000000  -0.000000   0.000000
    25  C   -0.000042  -0.000007   0.000006  -0.000008  -0.000280  -0.000857
    26  C   -0.000015  -0.000000  -0.000000   0.000001  -0.000002   0.000021
    27  C    0.000022   0.000002  -0.000000  -0.000000   0.000010  -0.000945
    28  H    0.000401   0.000031  -0.000000  -0.000023  -0.000010   0.000367
    29  H    0.000004  -0.000025  -0.000005   0.000011   0.001026   0.000617
    30  H   -0.000000   0.000000   0.000000  -0.000000  -0.000000  -0.000004
    31  H   -0.000000  -0.000000   0.000000  -0.000000  -0.000000  -0.000003
    32  H    0.000027   0.000001  -0.000000   0.000000   0.000017  -0.000706
    33  H    0.000121   0.000003   0.000000  -0.000001   0.000005   0.000073
    34  H    0.000000  -0.000000  -0.000000  -0.000000   0.000000   0.000020
               7          8          9         10         11         12
     1  C    0.381096  -0.027749   0.001932   0.001914  -0.026596   0.000014
     2  C   -0.028142   0.382589  -0.024151  -0.000056   0.002295   0.001505
     3  C    0.002160  -0.027402   0.368594   0.002558   0.000210  -0.044563
     4  C    0.000221   0.001559  -0.019627  -0.019483   0.001523   0.244195
     5  C    0.002162   0.000203   0.002579   0.368470  -0.027457  -0.044538
     6  C   -0.027616   0.002352  -0.000067  -0.024189   0.380215   0.001475
     7  H    0.446093  -0.001184  -0.000071  -0.000072  -0.001099   0.000002
     8  H   -0.001184   0.447701  -0.001113   0.000007  -0.000093  -0.000049
     9  H   -0.000071  -0.001113   0.392932  -0.000076   0.000007  -0.005361
    10  H   -0.000072   0.000007  -0.000076   0.393142  -0.000977  -0.005363
    11  H   -0.001099  -0.000093   0.000007  -0.000977   0.440062  -0.000050
    12  N    0.000002  -0.000049  -0.005361  -0.005363  -0.000050   5.734773
    13  O    0.000000   0.000000   0.000048   0.009096  -0.000002   0.314906
    14  O    0.000000  -0.000001   0.009030   0.000049   0.000000   0.314987
    15  C   -0.000000   0.000000  -0.000000  -0.000001  -0.000002   0.000000
    16  C    0.000000  -0.000000   0.000000   0.000001   0.000000  -0.000001
    17  C   -0.000000   0.000000  -0.000000  -0.000000  -0.000000   0.000000
    18  H    0.000000  -0.000000   0.000000   0.000000   0.000000  -0.000000
    19  H    0.000000  -0.000000   0.000000  -0.000000  -0.000000  -0.000000
    20  H   -0.000000  -0.000000   0.000000  -0.000000  -0.000000  -0.000000
    21  H   -0.000000   0.000000   0.000000   0.000020  -0.000000   0.000001
    22  H    0.000000  -0.000000   0.000000  -0.000000  -0.000000  -0.000000
    23  H    0.000000  -0.000000   0.000000   0.000000  -0.000000  -0.000000
    24  H    0.000000   0.000000  -0.000000  -0.000000   0.000000   0.000000
    25  C    0.000001  -0.000000   0.000000   0.000013  -0.000013  -0.000000
    26  C   -0.000006   0.000000  -0.000000  -0.000001  -0.000060   0.000000
    27  C    0.000065   0.000000  -0.000000   0.000001   0.000355   0.000000
    28  H    0.000017  -0.000000   0.000000  -0.000001  -0.000022  -0.000000
    29  H    0.000000  -0.000000   0.000000   0.000143   0.000003  -0.000001
    30  H    0.000000   0.000000   0.000000   0.000000   0.000002  -0.000000
    31  H    0.000000  -0.000000   0.000000   0.000000  -0.000000  -0.000000
    32  H   -0.000008   0.000000  -0.000000  -0.000001   0.001884   0.000000
    33  H    0.000233  -0.000000  -0.000000  -0.000000   0.000001  -0.000000
    34  H   -0.000002  -0.000000   0.000000  -0.000000  -0.000001  -0.000000
              13         14         15         16         17         18
     1  C   -0.000003  -0.000003   0.000004   0.000000  -0.000000  -0.000000
     2  C   -0.000028   0.000774   0.000000  -0.000000  -0.000000   0.000000
     3  C    0.003713   0.004032  -0.000000   0.000000  -0.000000   0.000000
     4  C   -0.087998  -0.087926  -0.000001  -0.000010   0.000000  -0.000000
     5  C    0.004052   0.003725   0.000004  -0.000012   0.000000  -0.000000
     6  C    0.000773  -0.000029   0.000030  -0.000004   0.000000  -0.000001
     7  H    0.000000   0.000000  -0.000000   0.000000  -0.000000   0.000000
     8  H    0.000000  -0.000001   0.000000  -0.000000   0.000000  -0.000000
     9  H    0.000048   0.009030  -0.000000   0.000000  -0.000000   0.000000
    10  H    0.009096   0.000049  -0.000001   0.000001  -0.000000   0.000000
    11  H   -0.000002   0.000000  -0.000002   0.000000  -0.000000   0.000000
    12  N    0.314906   0.314987   0.000000  -0.000001   0.000000  -0.000000
    13  O    8.303903  -0.087616   0.000000  -0.000000   0.000000   0.000000
    14  O   -0.087616   8.303415   0.000000   0.000000  -0.000000  -0.000000
    15  C    0.000000   0.000000   5.085563   0.351721  -0.057309   0.395917
    16  C   -0.000000   0.000000   0.351721   5.060760   0.340661  -0.041683
    17  C    0.000000  -0.000000  -0.057309   0.340661   5.096743  -0.002806
    18  H    0.000000  -0.000000   0.395917  -0.041683  -0.002806   0.566876
    19  H   -0.000000  -0.000000   0.395998  -0.041623  -0.002829  -0.031362
    20  H   -0.000000  -0.000000  -0.043918   0.399082  -0.039839  -0.002962
    21  H    0.000005  -0.000000  -0.043585   0.399414  -0.039349   0.004523
    22  H   -0.000000   0.000000  -0.003842  -0.038873   0.391385   0.000159
    23  H   -0.000000   0.000000  -0.003873  -0.039106   0.391000   0.002635
    24  H   -0.000000   0.000000   0.004378  -0.035557   0.394569  -0.000060
    25  C    0.000000  -0.000000   0.354172  -0.051876   0.004070  -0.041690
    26  C   -0.000000  -0.000000  -0.051376   0.003988  -0.000084  -0.003408
    27  C   -0.000000  -0.000000   0.004093  -0.000086   0.000001  -0.000052
    28  H    0.000000   0.000000  -0.041213  -0.003173  -0.000052  -0.002810
    29  H   -0.000001  -0.000000  -0.041079  -0.003168  -0.000046   0.004436
    30  H    0.000000  -0.000000  -0.003255  -0.000065  -0.000001   0.002425
    31  H   -0.000000  -0.000000  -0.003211  -0.000065  -0.000001   0.000247
    32  H    0.000000   0.000000  -0.000073  -0.000000  -0.000000  -0.000002
    33  H    0.000000   0.000000  -0.000074  -0.000000  -0.000000   0.000013
    34  H    0.000000   0.000000  -0.000081   0.000001  -0.000000   0.000001
              19         20         21         22         23         24
     1  C   -0.000000  -0.000000  -0.000001   0.000000   0.000000   0.000000
     2  C   -0.000000   0.000001  -0.000002   0.000000  -0.000000   0.000000
     3  C    0.000000   0.000002   0.000000   0.000000   0.000000  -0.000000
     4  C   -0.000000   0.000004   0.000038  -0.000000  -0.000000  -0.000000
     5  C   -0.000001  -0.000001   0.000140  -0.000000   0.000000  -0.000000
     6  C   -0.000001  -0.000001   0.000003  -0.000000  -0.000000   0.000000
     7  H    0.000000  -0.000000  -0.000000   0.000000   0.000000   0.000000
     8  H   -0.000000  -0.000000   0.000000  -0.000000  -0.000000   0.000000
     9  H    0.000000   0.000000   0.000000   0.000000   0.000000  -0.000000
    10  H   -0.000000  -0.000000   0.000020  -0.000000   0.000000  -0.000000
    11  H   -0.000000  -0.000000  -0.000000  -0.000000  -0.000000   0.000000
    12  N   -0.000000  -0.000000   0.000001  -0.000000  -0.000000   0.000000
    13  O   -0.000000  -0.000000   0.000005  -0.000000  -0.000000  -0.000000
    14  O   -0.000000  -0.000000  -0.000000   0.000000   0.000000   0.000000
    15  C    0.395998  -0.043918  -0.043585  -0.003842  -0.003873   0.004378
    16  C   -0.041623   0.399082   0.399414  -0.038873  -0.039106  -0.035557
    17  C   -0.002829  -0.039839  -0.039349   0.391385   0.391000   0.394569
    18  H   -0.031362  -0.002962   0.004523   0.000159   0.002635  -0.000060
    19  H    0.565946   0.004568  -0.002963   0.002625   0.000158  -0.000058
    20  H    0.004568   0.564712  -0.031398   0.004211  -0.002895  -0.002493
    21  H   -0.002963  -0.031398   0.559744  -0.002882   0.004199  -0.002509
    22  H    0.002625   0.004211  -0.002882   0.547755  -0.029262  -0.027119
    23  H    0.000158  -0.002895   0.004199  -0.029262   0.550633  -0.027413
    24  H   -0.000058  -0.002493  -0.002509  -0.027119  -0.027413   0.532716
    25  C   -0.041618  -0.003261  -0.003327  -0.000070  -0.000070  -0.000087
    26  C   -0.003394  -0.000065  -0.000060  -0.000000  -0.000000   0.000001
    27  C   -0.000052  -0.000000  -0.000000  -0.000000  -0.000000  -0.000000
    28  H    0.004450   0.002389   0.000230  -0.000001   0.000013   0.000001
    29  H   -0.002863   0.000229   0.002371   0.000013  -0.000001   0.000001
    30  H    0.000245   0.000017  -0.000003   0.000000  -0.000002   0.000000
    31  H    0.002415  -0.000003   0.000017  -0.000002   0.000000   0.000000
    32  H    0.000013   0.000000  -0.000002   0.000000  -0.000000  -0.000000
    33  H   -0.000001  -0.000002   0.000000  -0.000000   0.000000  -0.000000
    34  H    0.000001   0.000000   0.000000  -0.000000  -0.000000   0.000000
              25         26         27         28         29         30
     1  C   -0.000042  -0.000015   0.000022   0.000401   0.000004  -0.000000
     2  C   -0.000007  -0.000000   0.000002   0.000031  -0.000025   0.000000
     3  C    0.000006  -0.000000  -0.000000  -0.000000  -0.000005   0.000000
     4  C   -0.000008   0.000001  -0.000000  -0.000023   0.000011  -0.000000
     5  C   -0.000280  -0.000002   0.000010  -0.000010   0.001026  -0.000000
     6  C   -0.000857   0.000021  -0.000945   0.000367   0.000617  -0.000004
     7  H    0.000001  -0.000006   0.000065   0.000017   0.000000   0.000000
     8  H   -0.000000   0.000000   0.000000  -0.000000  -0.000000   0.000000
     9  H    0.000000  -0.000000  -0.000000   0.000000   0.000000   0.000000
    10  H    0.000013  -0.000001   0.000001  -0.000001   0.000143   0.000000
    11  H   -0.000013  -0.000060   0.000355  -0.000022   0.000003   0.000002
    12  N   -0.000000   0.000000   0.000000  -0.000000  -0.000001  -0.000000
    13  O    0.000000  -0.000000  -0.000000   0.000000  -0.000001   0.000000
    14  O   -0.000000  -0.000000  -0.000000   0.000000  -0.000000  -0.000000
    15  C    0.354172  -0.051376   0.004093  -0.041213  -0.041079  -0.003255
    16  C   -0.051876   0.003988  -0.000086  -0.003173  -0.003168  -0.000065
    17  C    0.004070  -0.000084   0.000001  -0.000052  -0.000046  -0.000001
    18  H   -0.041690  -0.003408  -0.000052  -0.002810   0.004436   0.002425
    19  H   -0.041618  -0.003394  -0.000052   0.004450  -0.002863   0.000245
    20  H   -0.003261  -0.000065  -0.000000   0.002389   0.000229   0.000017
    21  H   -0.003327  -0.000060  -0.000000   0.000230   0.002371  -0.000003
    22  H   -0.000070  -0.000000  -0.000000  -0.000001   0.000013   0.000000
    23  H   -0.000070  -0.000000  -0.000000   0.000013  -0.000001  -0.000002
    24  H   -0.000087   0.000001  -0.000000   0.000001   0.000001   0.000000
    25  C    5.087655   0.350559  -0.057597   0.396478   0.395505  -0.042913
    26  C    0.350559   5.062632   0.340054  -0.042277  -0.042181   0.399237
    27  C   -0.057597   0.340054   5.103644  -0.002957  -0.002934  -0.039969
    28  H    0.396478  -0.042277  -0.002957   0.566354  -0.032185  -0.003001
    29  H    0.395505  -0.042181  -0.002934  -0.032185   0.568956   0.004515
    30  H   -0.042913   0.399237  -0.039969  -0.003001   0.004515   0.560415
    31  H   -0.043057   0.399228  -0.040095   0.004544  -0.003029  -0.031023
    32  H   -0.003797  -0.038839   0.388845   0.000147   0.002348   0.004235
    33  H   -0.003671  -0.038640   0.390622   0.002657   0.000133  -0.002974
    34  H    0.004310  -0.035409   0.394533  -0.000052  -0.000049  -0.002513
              31         32         33         34
     1  C   -0.000000   0.000027   0.000121   0.000000
     2  C   -0.000000   0.000001   0.000003  -0.000000
     3  C    0.000000  -0.000000   0.000000  -0.000000
     4  C   -0.000000   0.000000  -0.000001  -0.000000
     5  C   -0.000000   0.000017   0.000005   0.000000
     6  C   -0.000003  -0.000706   0.000073   0.000020
     7  H    0.000000  -0.000008   0.000233  -0.000002
     8  H   -0.000000   0.000000  -0.000000  -0.000000
     9  H    0.000000  -0.000000  -0.000000   0.000000
    10  H    0.000000  -0.000001  -0.000000  -0.000000
    11  H   -0.000000   0.001884   0.000001  -0.000001
    12  N   -0.000000   0.000000  -0.000000  -0.000000
    13  O   -0.000000   0.000000   0.000000   0.000000
    14  O   -0.000000   0.000000   0.000000   0.000000
    15  C   -0.003211  -0.000073  -0.000074  -0.000081
    16  C   -0.000065  -0.000000  -0.000000   0.000001
    17  C   -0.000001  -0.000000  -0.000000  -0.000000
    18  H    0.000247  -0.000002   0.000013   0.000001
    19  H    0.002415   0.000013  -0.000001   0.000001
    20  H   -0.000003   0.000000  -0.000002   0.000000
    21  H    0.000017  -0.000002   0.000000   0.000000
    22  H   -0.000002   0.000000  -0.000000  -0.000000
    23  H    0.000000  -0.000000   0.000000  -0.000000
    24  H    0.000000  -0.000000  -0.000000   0.000000
    25  C   -0.043057  -0.003797  -0.003671   0.004310
    26  C    0.399228  -0.038839  -0.038640  -0.035409
    27  C   -0.040095   0.388845   0.390622   0.394533
    28  H    0.004544   0.000147   0.002657  -0.000052
    29  H   -0.003029   0.002348   0.000133  -0.000049
    30  H   -0.031023   0.004235  -0.002974  -0.002513
    31  H    0.560835  -0.003031   0.004236  -0.002488
    32  H   -0.003031   0.560939  -0.031433  -0.027458
    33  H    0.004236  -0.031433   0.554653  -0.027246
    34  H   -0.002488  -0.027458  -0.027246   0.531443
 Mulliken charges:
               1
     1  C   -0.174615
     2  C   -0.218436
     3  C   -0.171426
     4  C    0.159199
     5  C   -0.173419
     6  C   -0.215681
     7  H    0.226149
     8  H    0.223180
     9  H    0.275344
    10  H    0.274809
    11  H    0.229815
    12  N    0.488068
    13  O   -0.460847
    14  O   -0.460437
    15  C   -0.298987
    16  C   -0.300326
    17  C   -0.476114
    18  H    0.149604
    19  H    0.150346
    20  H    0.151622
    21  H    0.155376
    22  H    0.155902
    23  H    0.153984
    24  H    0.163630
    25  C   -0.298529
    26  C   -0.299902
    27  C   -0.477559
    28  H    0.149697
    29  H    0.147254
    30  H    0.154632
    31  H    0.154485
    32  H    0.146895
    33  H    0.151293
    34  H    0.164993
 Sum of Mulliken charges =  -0.00000
 Mulliken charges with hydrogens summed into heavy atoms:
               1
     1  C    0.051534
     2  C    0.004744
     3  C    0.103918
     4  C    0.159199
     5  C    0.101390
     6  C    0.014134
    12  N    0.488068
    13  O   -0.460847
    14  O   -0.460437
    15  C    0.000964
    16  C    0.006672
    17  C   -0.002598
    25  C   -0.001577
    26  C    0.009216
    27  C   -0.014379
 Electronic spatial extent (au):  <R**2>=           5135.4736
 Charge=             -0.0000 electrons
 Dipole moment (field-independent basis, Debye):
    X=              2.4634    Y=             -4.2545    Z=              1.6972  Tot=              5.2009
 Quadrupole moment (field-independent basis, Debye-Ang):
   XX=           -105.5547   YY=            -95.6725   ZZ=            -90.7166
   XY=              9.9419   XZ=             -6.7354   YZ=              0.0960
 Traceless Quadrupole moment (field-independent basis, Debye-Ang):
   XX=             -8.2401   YY=              1.6421   ZZ=              6.5980
   XY=              9.9419   XZ=             -6.7354   YZ=              0.0960
 Octapole moment (field-independent basis, Debye-Ang**2):
  XXX=             23.0942  YYY=             -9.7656  ZZZ=              4.8490  XYY=             10.4793
  XXY=            -33.9537  XXZ=             17.6033  XZZ=            -10.0241  YZZ=             -8.9835
  YYZ=             10.1436  XYZ=             -2.0764
 Hexadecapole moment (field-independent basis, Debye-Ang**3):
 XXXX=          -4527.9429 YYYY=          -2099.5854 ZZZZ=           -517.0727 XXXY=             72.1577
 XXXZ=            -26.0514 YYYX=            -34.5907 YYYZ=            -30.3648 ZZZX=            -28.4594
 ZZZY=            -16.6338 XXYY=          -1170.9285 XXZZ=           -787.8572 YYZZ=           -429.9149
 XXYZ=              0.8637 YYXZ=            -25.9670 ZZXY=             16.3268
 N-N= 9.425064407695D+02 E-N=-3.447945832575D+03  KE= 6.679649280016D+02
 Leave Link  601 at Thu May  6 12:39:10 2021, MaxMem=   524288000 cpu:               0.5 elap:               0.5
 (Enter /opt/gaussian/g16_legacy/l9999.exe)
 1\1\GINC-TRUENO90\SP\RMP2-FC\6-31G(d)\C12H19N1O2\JRAMOS\06-May-2021\0\
 \#p 6-31g* mp2\\Input file generated by CHIRIPA (05-May-2021 14:55:24)
 \\0,1\C,0,1.914143,0.,0.\C,0,1.214143,1.211,0.\C,0,-0.183857,1.223,0.\
 C,0,-0.852857,0.,0.\C,0,-0.183857,-1.223,0.\C,0,1.214143,-1.211,0.\H,0
 ,3.000143,0.,0.\H,0,1.755143,2.153,0.\H,0,-0.750857,2.146,0.\H,0,-0.75
 0857,-2.146,0.\H,0,1.755143,-2.153,0.\N,0,-2.332857,0.,0.\O,0,-2.89885
 7,-1.091,0.\O,0,-2.898857,1.091,0.\C,0,0.872931,-2.706778,-4.892714\C,
 0,-0.337056,-1.773276,-4.942622\C,0,-1.148025,-1.924972,-6.22991\H,0,1
 .517728,-2.507559,-5.759601\H,0,0.52977,-3.746028,-4.990669\H,0,0.0081
 62,-0.736184,-4.843212\H,0,-0.978949,-1.974608,-4.075411\H,0,-1.520252
 ,-2.949459,-6.332253\H,0,-0.527532,-1.703998,-7.104416\H,0,-2.008218,-
 1.248427,-6.244571\C,0,1.693632,-2.566826,-3.611858\C,0,2.903618,-3.50
 0328,-3.56195\C,0,3.714588,-3.348632,-2.274662\H,0,2.036793,-1.527576,
 -3.513902\H,0,1.048835,-2.766045,-2.74497\H,0,3.545512,-3.298996,-4.42
 916\H,0,2.558401,-4.53742,-3.661359\H,0,3.094095,-3.569606,-1.400156\H
 ,0,4.086814,-2.324145,-2.172319\H,0,4.574781,-4.025177,-2.260001\\Vers
 ion=EM64L-G16RevA.03\State=1-A\HF=-669.5350048\MP2=-671.6280057\RMSD=6
 .949e-09\PG=C01 [X(C12H19N1O2)]\\@


 TIME GOES, YOU SAY?  AH NO!
 ALAS, TIME STAYS, WE GO.
    -- A. DOBSON (1840-1921)
 Job cpu time:       0 days  0 hours  4 minutes 47.0 seconds.
 Elapsed time:       0 days  0 hours  2 minutes 26.2 seconds.
 File lengths (MBytes):  RWF=     43 Int=      0 D2E=      0 Chk=      6 Scr=      1
 Normal termination of Gaussian 16 at Thu May  6 12:39:10 2021.
