 Entering Gaussian System, Link 0=/opt/gaussian/g16_legacy/g16
 Input=gaussian_00530_2_1.com
 Output=gaussian_00530_2_1.log
 Initial command:
 /opt/gaussian/g16_legacy/l1.exe "/scratch-local/jramos/2596762/Gau-13700.inp" -scrdir="/scratch-local/jramos/2596762/"
 Entering Link 1 = /opt/gaussian/g16_legacy/l1.exe PID=     13701.
  
 Copyright (c) 1988,1990,1992,1993,1995,1998,2003,2009,2016,
            Gaussian, Inc.  All Rights Reserved.
  
 This is part of the Gaussian(R) 16 program.  It is based on
 the Gaussian(R) 09 system (copyright 2009, Gaussian, Inc.),
 the Gaussian(R) 03 system (copyright 2003, Gaussian, Inc.),
 the Gaussian(R) 98 system (copyright 1998, Gaussian, Inc.),
 the Gaussian(R) 94 system (copyright 1995, Gaussian, Inc.),
 the Gaussian 92(TM) system (copyright 1992, Gaussian, Inc.),
 the Gaussian 90(TM) system (copyright 1990, Gaussian, Inc.),
 the Gaussian 88(TM) system (copyright 1988, Gaussian, Inc.),
 the Gaussian 86(TM) system (copyright 1986, Carnegie Mellon
 University), and the Gaussian 82(TM) system (copyright 1983,
 Carnegie Mellon University). Gaussian is a federally registered
 trademark of Gaussian, Inc.
  
 This software contains proprietary and confidential information,
 including trade secrets, belonging to Gaussian, Inc.
  
 This software is provided under written license and may be
 used, copied, transmitted, or stored only in accord with that
 written license.
  
 The following legend is applicable only to US Government
 contracts under FAR:
  
                    RESTRICTED RIGHTS LEGEND
  
 Use, reproduction and disclosure by the US Government is
 subject to restrictions as set forth in subparagraphs (a)
 and (c) of the Commercial Computer Software - Restricted
 Rights clause in FAR 52.227-19.
  
 Gaussian, Inc.
 340 Quinnipiac St., Bldg. 40, Wallingford CT 06492
  
  
 ---------------------------------------------------------------
 Warning -- This program may not be used in any manner that
 competes with the business of Gaussian, Inc. or will provide
 assistance to any competitor of Gaussian, Inc.  The licensee
 of this program is prohibited from giving any competitor of
 Gaussian, Inc. access to this program.  By using this program,
 the user acknowledges that Gaussian, Inc. is engaged in the
 business of creating and licensing software in the field of
 computational chemistry and represents and warrants to the
 licensee that it is not a competitor of Gaussian, Inc. and that
 it will not use this program in any manner prohibited above.
 ---------------------------------------------------------------
  

 Cite this work as:
 Gaussian 16, Revision A.03,
 M. J. Frisch, G. W. Trucks, H. B. Schlegel, G. E. Scuseria, 
 M. A. Robb, J. R. Cheeseman, G. Scalmani, V. Barone, 
 G. A. Petersson, H. Nakatsuji, X. Li, M. Caricato, A. V. Marenich, 
 J. Bloino, B. G. Janesko, R. Gomperts, B. Mennucci, H. P. Hratchian, 
 J. V. Ortiz, A. F. Izmaylov, J. L. Sonnenberg, D. Williams-Young, 
 F. Ding, F. Lipparini, F. Egidi, J. Goings, B. Peng, A. Petrone, 
 T. Henderson, D. Ranasinghe, V. G. Zakrzewski, J. Gao, N. Rega, 
 G. Zheng, W. Liang, M. Hada, M. Ehara, K. Toyota, R. Fukuda, 
 J. Hasegawa, M. Ishida, T. Nakajima, Y. Honda, O. Kitao, H. Nakai, 
 T. Vreven, K. Throssell, J. A. Montgomery, Jr., J. E. Peralta, 
 F. Ogliaro, M. J. Bearpark, J. J. Heyd, E. N. Brothers, K. N. Kudin, 
 V. N. Staroverov, T. A. Keith, R. Kobayashi, J. Normand, 
 K. Raghavachari, A. P. Rendell, J. C. Burant, S. S. Iyengar, 
 J. Tomasi, M. Cossi, J. M. Millam, M. Klene, C. Adamo, R. Cammi, 
 J. W. Ochterski, R. L. Martin, K. Morokuma, O. Farkas, 
 J. B. Foresman, and D. J. Fox, Gaussian, Inc., Wallingford CT, 2016.
 
 ******************************************
 Gaussian 16:  EM64L-G16RevA.03 25-Dec-2016
                 6-May-2021 
 ******************************************
 %chk=gaussian_00530_2_1.chk
 %nproc=2
 Will use up to    2 processors via shared memory.
 %mem=4000Mb
 -------------
 #p 6-31g* mp2
 -------------
 1/38=1,172=1/1;
 2/12=2,17=6,18=5,40=1/2;
 3/5=1,6=6,7=1,11=9,25=1,30=1/1,2,3;
 4//1;
 5/5=2,38=5/2;
 8/10=2/1;
 9/16=-3/6;
 6/7=2,8=2,9=2,10=2/1;
 99/5=1,9=1/99;
 Leave Link    1 at Thu May  6 10:45:44 2021, MaxMem=   524288000 cpu:               0.1 elap:               0.1
 (Enter /opt/gaussian/g16_legacy/l101.exe)
 ------------------------------------------------------
 Input file generated by CHIRIPA (05-May-2021 14:55:19)
 ------------------------------------------------------
 Symbolic Z-matrix:
 Charge =  0 Multiplicity = 1
 C                     1.91414   0.        0. 
 C                     1.21414   1.211     0. 
 C                    -0.18386   1.223     0. 
 C                    -0.85286   0.        0. 
 C                    -0.18386  -1.223     0. 
 C                     1.21414  -1.211     0. 
 H                     3.00014   0.        0. 
 H                     1.75514   2.153     0. 
 H                    -0.75086   2.146     0. 
 H                    -0.75086  -2.146     0. 
 H                     1.75514  -2.153     0. 
 N                    -2.33286   0.        0. 
 O                    -2.89886  -1.091     0. 
 O                    -2.89886   1.091     0. 
 C                     6.88268  -4.48524  -1.24235 
 C                     5.97254  -3.25697  -1.2109 
 C                     4.50104  -3.61675  -1.00341 
 H                     6.55167  -5.15854  -2.04488 
 H                     6.76934  -5.04114  -0.30133 
 H                     6.08861  -2.70281  -2.15114 
 H                     6.30588  -2.58643  -0.40848 
 H                     4.36456  -4.1499   -0.05698 
 H                     4.14606  -4.26693  -1.80954 
 H                     3.86832  -2.72392  -0.98415 
 C                     8.35681  -4.14179  -1.44908 
 C                     9.26695  -5.37005  -1.48053 
 C                     10.73845  -5.01028  -1.68802 
 H                     8.47015  -3.58589  -2.3901 
 H                     8.68782  -3.46849  -0.64655 
 H                     8.93361  -6.0406   -2.28295 
 H                     9.15089  -5.92422  -0.54029 
 H                     11.09343  -4.3601   -0.88189 
 H                     10.87493  -4.47713  -2.63444 
 H                     11.37117  -5.90311  -1.70728 
 
 ITRead=  0  0  0  0  0  0  0  0  0  0  0  0  0  0  0  0  0  0  0  0
 ITRead=  0  0  0  0  0  0  0  0  0  0  0  0  0  0
 MicOpt= -1 -1 -1 -1 -1 -1 -1 -1 -1 -1 -1 -1 -1 -1 -1 -1 -1 -1 -1 -1
 MicOpt= -1 -1 -1 -1 -1 -1 -1 -1 -1 -1 -1 -1 -1 -1
 NAtoms=     34 NQM=       34 NQMF=       0 NMMI=      0 NMMIF=      0
                NMic=       0 NMicF=      0.
                    Isotopes and Nuclear Properties:
 (Nuclear quadrupole moments (NQMom) in fm**2, nuclear magnetic moments (NMagM)
  in nuclear magnetons)

  Atom         1           2           3           4           5           6           7           8           9          10
 IAtWgt=          12          12          12          12          12          12           1           1           1           1
 AtmWgt=  12.0000000  12.0000000  12.0000000  12.0000000  12.0000000  12.0000000   1.0078250   1.0078250   1.0078250   1.0078250
 NucSpn=           0           0           0           0           0           0           1           1           1           1
 AtZEff=  -0.0000000  -0.0000000  -0.0000000  -0.0000000  -0.0000000  -0.0000000  -0.0000000  -0.0000000  -0.0000000  -0.0000000
 NQMom=    0.0000000   0.0000000   0.0000000   0.0000000   0.0000000   0.0000000   0.0000000   0.0000000   0.0000000   0.0000000
 NMagM=    0.0000000   0.0000000   0.0000000   0.0000000   0.0000000   0.0000000   2.7928460   2.7928460   2.7928460   2.7928460
 AtZNuc=   6.0000000   6.0000000   6.0000000   6.0000000   6.0000000   6.0000000   1.0000000   1.0000000   1.0000000   1.0000000

  Atom        11          12          13          14          15          16          17          18          19          20
 IAtWgt=           1          14          16          16          12          12          12           1           1           1
 AtmWgt=   1.0078250  14.0030740  15.9949146  15.9949146  12.0000000  12.0000000  12.0000000   1.0078250   1.0078250   1.0078250
 NucSpn=           1           2           0           0           0           0           0           1           1           1
 AtZEff=  -0.0000000  -0.0000000  -0.0000000  -0.0000000  -0.0000000  -0.0000000  -0.0000000  -0.0000000  -0.0000000  -0.0000000
 NQMom=    0.0000000   2.0440000   0.0000000   0.0000000   0.0000000   0.0000000   0.0000000   0.0000000   0.0000000   0.0000000
 NMagM=    2.7928460   0.4037610   0.0000000   0.0000000   0.0000000   0.0000000   0.0000000   2.7928460   2.7928460   2.7928460
 AtZNuc=   1.0000000   7.0000000   8.0000000   8.0000000   6.0000000   6.0000000   6.0000000   1.0000000   1.0000000   1.0000000

  Atom        21          22          23          24          25          26          27          28          29          30
 IAtWgt=           1           1           1           1          12          12          12           1           1           1
 AtmWgt=   1.0078250   1.0078250   1.0078250   1.0078250  12.0000000  12.0000000  12.0000000   1.0078250   1.0078250   1.0078250
 NucSpn=           1           1           1           1           0           0           0           1           1           1
 AtZEff=  -0.0000000  -0.0000000  -0.0000000  -0.0000000  -0.0000000  -0.0000000  -0.0000000  -0.0000000  -0.0000000  -0.0000000
 NQMom=    0.0000000   0.0000000   0.0000000   0.0000000   0.0000000   0.0000000   0.0000000   0.0000000   0.0000000   0.0000000
 NMagM=    2.7928460   2.7928460   2.7928460   2.7928460   0.0000000   0.0000000   0.0000000   2.7928460   2.7928460   2.7928460
 AtZNuc=   1.0000000   1.0000000   1.0000000   1.0000000   6.0000000   6.0000000   6.0000000   1.0000000   1.0000000   1.0000000

  Atom        31          32          33          34
 IAtWgt=           1           1           1           1
 AtmWgt=   1.0078250   1.0078250   1.0078250   1.0078250
 NucSpn=           1           1           1           1
 AtZEff=  -0.0000000  -0.0000000  -0.0000000  -0.0000000
 NQMom=    0.0000000   0.0000000   0.0000000   0.0000000
 NMagM=    2.7928460   2.7928460   2.7928460   2.7928460
 AtZNuc=   1.0000000   1.0000000   1.0000000   1.0000000
 Leave Link  101 at Thu May  6 10:45:44 2021, MaxMem=   524288000 cpu:               0.4 elap:               0.2
 (Enter /opt/gaussian/g16_legacy/l202.exe)
                          Input orientation:                          
 ---------------------------------------------------------------------
 Center     Atomic      Atomic             Coordinates (Angstroms)
 Number     Number       Type             X           Y           Z
 ---------------------------------------------------------------------
      1          6           0        1.914143    0.000000    0.000000
      2          6           0        1.214143    1.211000    0.000000
      3          6           0       -0.183857    1.223000    0.000000
      4          6           0       -0.852857    0.000000    0.000000
      5          6           0       -0.183857   -1.223000    0.000000
      6          6           0        1.214143   -1.211000    0.000000
      7          1           0        3.000143    0.000000    0.000000
      8          1           0        1.755143    2.153000    0.000000
      9          1           0       -0.750857    2.146000    0.000000
     10          1           0       -0.750857   -2.146000    0.000000
     11          1           0        1.755143   -2.153000    0.000000
     12          7           0       -2.332857    0.000000    0.000000
     13          8           0       -2.898857   -1.091000    0.000000
     14          8           0       -2.898857    1.091000    0.000000
     15          6           0        6.882684   -4.485239   -1.242350
     16          6           0        5.972542   -3.256974   -1.210899
     17          6           0        4.501044   -3.616749   -1.003410
     18          1           0        6.551673   -5.158536   -2.044875
     19          1           0        6.769338   -5.041138   -0.301327
     20          1           0        6.088606   -2.702807   -2.151135
     21          1           0        6.305876   -2.586432   -0.408479
     22          1           0        4.364562   -4.149897   -0.056982
     23          1           0        4.146057   -4.266934   -1.809539
     24          1           0        3.868318   -2.723918   -0.984146
     25          6           0        8.356806   -4.141790   -1.449076
     26          6           0        9.266949   -5.370055   -1.480527
     27          6           0       10.738446   -5.010280   -1.688016
     28          1           0        8.470153   -3.585891   -2.390099
     29          1           0        8.687818   -3.468492   -0.646550
     30          1           0        8.933614   -6.040597   -2.282947
     31          1           0        9.150885   -5.924222   -0.540291
     32          1           0       11.093433   -4.360095   -0.881886
     33          1           0       10.874928   -4.477131   -2.634444
     34          1           0       11.371173   -5.903110   -1.707280
 ---------------------------------------------------------------------
                    Distance matrix (angstroms):
                    1          2          3          4          5
     1  C    0.000000
     2  C    1.398757   0.000000
     3  C    2.428443   1.398052   0.000000
     4  C    2.767000   2.395623   1.394019   0.000000
     5  C    2.428443   2.806913   2.446000   1.394019   0.000000
     6  C    1.398757   2.422000   2.806913   2.395623   1.398052
     7  H    1.086000   2.157850   3.410804   3.853000   3.410804
     8  H    2.158863   1.086299   2.150493   3.381874   3.893212
     9  H    3.421628   2.176109   1.083244   2.148423   3.416380
    10  H    3.421628   3.889817   3.416380   2.148423   1.083244
    11  H    2.158863   3.407224   3.893212   3.381874   2.150493
    12  N    4.247000   3.748030   2.472636   1.480000   2.472636
    13  O    4.935104   4.713382   3.567327   2.318706   2.718207
    14  O    4.935104   4.114750   2.718207   2.318706   3.567327
    15  C    6.807878   8.131601   9.168611   9.027702   7.881728
    16  C    5.342729   6.638632   7.709584   7.658997   6.595800
    17  C    4.558482   5.926020   6.810161   6.538498   5.355853
    18  H    7.231783   8.558138   9.501204   9.253057   8.064572
    19  H    7.005483   8.369003   9.363607   9.143398   7.938255
    20  H    5.418366   6.611025   7.706045   7.753480   6.794189
    21  H    5.113101   6.364989   7.536263   7.622594   6.643977
    22  H    4.819693   6.218328   7.039843   6.666810   5.409075
    23  H    5.144181   6.471345   7.222324   6.816913   5.593579
    24  H    3.493862   4.847346   5.741675   5.538751   4.431864
    25  C    7.795008   9.042666  10.189392  10.201575   9.141230
    26  C    9.224598  10.504757  11.618006  11.551620  10.426301
    27  C   10.286915  11.500699  12.688573  12.740118  11.682876
    28  H    7.845537   9.020666  10.184787  10.270818   9.283734
    29  H    7.637482   8.841464  10.056577  10.172165   9.174251
    30  H    9.538010  10.834562  11.878551  11.725002  10.561693
    31  H    9.367964  10.686215  11.769117  11.638865  10.465697
    32  H   10.200368  11.376080  12.614513  12.747627  11.738669
    33  H   10.357638  11.516332  12.717253  12.826766  11.824821
    34  H   11.278162  12.517613  13.682652  13.681682  12.583201
                    6          7          8          9         10
     6  C    0.000000
     7  H    2.157850   0.000000
     8  H    3.407224   2.487053   0.000000
     9  H    3.889817   4.321495   2.506010   0.000000
    10  H    2.176109   4.321495   4.976087   4.292000   0.000000
    11  H    1.086299   2.487053   4.306000   4.976087   2.506010
    12  N    3.748030   5.333000   4.620298   2.666091   2.666091
    13  O    4.114750   5.999040   5.673028   3.884852   2.393100
    14  O    4.713382   5.999040   4.773632   2.393100   3.884852
    15  C    6.663065   6.060935   8.479465  10.187625   8.080001
    16  C    5.319271   4.572670   6.965669   8.709908   6.921317
    17  C    4.195018   4.042327   6.468138   7.861207   5.545485
    18  H    6.946494   6.588275   8.980355  10.529231   8.159892
    19  H    6.754328   6.301643   8.774313  10.406685   8.063867
    20  H    5.532925   4.633697   6.854571   8.655436   7.191361
    21  H    5.290030   4.217150   6.583179   8.506483   7.082254
    22  H    4.308770   4.368813   6.821937   8.112279   5.494212
    23  H    4.605354   4.774335   7.085651   8.269215   5.634941
    24  H    3.209690   3.023574   5.405403   6.783909   4.758078
    25  C    7.855379   6.924456   9.236133  11.161794   9.435705
    26  C    9.183539   8.384647  10.733850  12.611086  10.627461
    27  C   10.392126   9.371960  11.612998  13.640595  11.960668
    28  H    8.000148   6.963634   9.150891  11.117292   9.633944
    29  H    7.833908   6.693139   8.948809  11.001324   9.552780
    30  H    9.387603   8.769649  11.130019  12.884921  10.684976
    31  H    9.246526   8.556866  10.964964  12.785339  10.611850
    32  H   10.406483   9.235231  11.419360  13.542311  12.081686
    33  H   10.532743   9.433835  11.578835  13.636900  12.146330
    34  H   11.317949  10.384395  12.660322  14.650822  12.805245
                   11         12         13         14         15
    11  H    0.000000
    12  N    4.620298   0.000000
    13  O    4.773632   1.229080   0.000000
    14  O    5.673028   1.229080   2.182000   0.000000
    15  C    5.768401  10.324098  10.427983  11.327684   0.000000
    16  C    4.524543   9.002989   9.211918   9.953536   1.529046
    17  C    3.269459   7.796788   7.883196   8.827699   2.546287
    18  H    6.018427  10.475060  10.489942  11.513068   1.098610
    19  H    5.794333  10.409314  10.448367  11.452856   1.098815
    20  H    4.869145   9.102395   9.380821   9.989737   2.152560
    21  H    4.589541   9.026860   9.334360   9.920558   2.152560
    22  H    3.286322   7.879106   7.881456   8.956981   2.803300
    23  H    3.668735   7.966021   7.936737   9.033975   2.803299
    24  H    2.400000   6.844183   7.030620   7.830504   3.500760
    25  C    7.045357  11.555221  11.751472  12.496874   1.527655
    26  C    8.304736  12.867982  12.981106  13.854387   2.554280
    27  C    9.576700  14.100045  14.289373  15.034994   3.916783
    28  H    7.270289  11.630830  11.882401  12.523589   2.155507
    29  H    7.085939  11.571678  11.845739  12.468281   2.155751
    30  H    8.476774  12.985917  13.027576  14.002817   2.776382
    31  H    8.319317  12.933084  12.994161  13.953549   2.776382
    32  H    9.636008  14.144024  14.396141  15.042484   4.228002
    33  H    9.773042  14.192624  14.426480  15.088457   4.228002
    34  H   10.461652  15.018720  15.156021  15.983308   4.730016
                   16         17         18         19         20
    16  C    0.000000
    17  C    1.528985   0.000000
    18  H    2.155655   2.768905   0.000000
    19  H    2.155330   2.768928   1.761000   0.000000
    20  H    1.097550   2.161693   2.501265   3.058264   0.000000
    21  H    1.097550   2.161693   3.058419   2.500372   1.760000
    22  H    2.171275   1.094806   3.122903   2.576230   3.074390
    23  H    2.171275   1.094806   2.576301   3.123411   2.517276
    24  H    2.182504   1.094468   3.775302   3.775138   2.508384
    25  C    2.554279   3.916783   2.155749   2.155507   2.776381
    26  C    3.923127   5.100546   2.781358   2.781503   4.203069
    27  C    5.100545   6.427737   4.204569   4.204483   5.211518
    28  H    2.781503   4.204484   2.504587   3.061615   2.551217
    29  H    2.781358   4.204570   3.061809   2.504588   3.099347
    30  H    4.203069   5.211519   2.551147   3.099972   4.387743
    31  H    4.203069   5.211519   3.099347   2.551217   4.727567
    32  H    5.248681   6.635279   4.755800   4.415729   5.422720
    33  H    5.248681   6.635279   4.416156   4.755776   5.127445
    34  H    6.032715   7.274720   4.888347   4.888413   6.192290
                   21         22         23         24         25
    21  H    0.000000
    22  H    2.517275   0.000000
    23  H    3.074390   1.769999   0.000000
    24  H    2.508383   1.771809   1.771810   0.000000
    25  C    2.776382   4.228002   4.228002   4.730015   0.000000
    26  C    4.203070   5.248682   5.248682   6.032715   1.529047
    27  C    5.211519   6.635279   6.635279   7.274719   2.546287
    28  H    3.099973   4.755777   4.415730   4.888414   1.098816
    29  H    2.551148   4.416157   4.755801   4.888348   1.098611
    30  H    4.727567   5.422721   5.127446   6.192291   2.152560
    31  H    4.387743   5.127446   5.422720   6.192291   2.152560
    32  H    5.127445   6.782504   7.009654   7.408766   2.803300
    33  H    5.422721   7.009655   6.782504   7.408767   2.803300
    34  H    6.192291   7.408768   7.408767   8.180649   3.500761
                   26         27         28         29         30
    26  C    0.000000
    27  C    1.528984   0.000000
    28  H    2.155330   2.768927   0.000000
    29  H    2.155656   2.768905   1.761001   0.000000
    30  H    1.097550   2.161693   2.500372   3.058420   0.000000
    31  H    1.097550   2.161692   3.058264   2.501266   1.760000
    32  H    2.171275   1.094807   3.123411   2.576300   3.074391
    33  H    2.171275   1.094806   2.576229   3.122903   2.517276
    34  H    2.182504   1.094468   3.775137   3.775302   2.508384
                   31         32         33         34
    31  H    0.000000
    32  H    2.517275   0.000000
    33  H    3.074390   1.770000   0.000000
    34  H    2.508384   1.771810   1.771809   0.000000
 Stoichiometry    C12H19NO2
 Framework group  C1[X(C12H19NO2)]
 Deg. of freedom    96
 Full point group                 C1      NOp   1
 Largest Abelian subgroup         C1      NOp   1
 Largest concise Abelian subgroup C1      NOp   1
                         Standard orientation:                         
 ---------------------------------------------------------------------
 Center     Atomic      Atomic             Coordinates (Angstroms)
 Number     Number       Type             X           Y           Z
 ---------------------------------------------------------------------
      1          6           0        1.857238    1.260630   -0.261687
      2          6           0        3.000955    2.038946   -0.055153
      3          6           0        4.256682    1.436912    0.068353
      4          6           0        4.332492    0.047768   -0.020089
      5          6           0        3.211378   -0.754889   -0.225357
      6          6           0        1.965908   -0.131349   -0.345981
      7          1           0        0.885743    1.736658   -0.356511
      8          1           0        2.919563    3.120186    0.010723
      9          1           0        5.158345    2.015455    0.228692
     10          1           0        3.324148   -1.830501   -0.286681
     11          1           0        1.079383   -0.738315   -0.506331
     12          7           0        5.656444   -0.600963    0.109136
     13          8           0        5.696525   -1.826677    0.027552
     14          8           0        6.629008    0.128560    0.289561
     15          6           0       -4.666801   -0.667707   -0.005507
     16          6           0       -3.323604    0.036172    0.190346
     17          6           0       -2.133854   -0.916672    0.070438
     18          1           0       -4.763456   -1.472384    0.736178
     19          1           0       -4.679816   -1.149550   -0.992955
     20          1           0       -3.313659    0.517708    1.176571
     21          1           0       -3.230219    0.839391   -0.551769
     22          1           0       -2.115741   -1.387890   -0.917603
     23          1           0       -2.199655   -1.711401    0.820556
     24          1           0       -1.183766   -0.392621    0.213843
     25          6           0       -5.865777    0.271711    0.111457
     26          6           0       -7.208975   -0.432168   -0.084396
     27          6           0       -8.398725    0.520675    0.035511
     28          1           0       -5.852763    0.753553    1.098905
     29          1           0       -5.769122    1.076389   -0.630229
     30          1           0       -7.302359   -1.235388    0.657718
     31          1           0       -7.218920   -0.913705   -1.070621
     32          1           0       -8.332923    1.315404   -0.714607
     33          1           0       -8.416837    0.991894    1.023553
     34          1           0       -9.348813   -0.003374   -0.107893
 ---------------------------------------------------------------------
 Rotational constants (GHZ):           2.1606221           0.0955052           0.0919733
 Leave Link  202 at Thu May  6 10:45:45 2021, MaxMem=   524288000 cpu:               0.1 elap:               0.1
 (Enter /opt/gaussian/g16_legacy/l301.exe)
 Standard basis: 6-31G(d) (6D, 7F)
 Ernie: Thresh=  0.10000D-02 Tol=  0.10000D-05 Strict=F.
 There are   263 symmetry adapted cartesian basis functions of A   symmetry.
 There are   263 symmetry adapted basis functions of A   symmetry.
   263 basis functions,   496 primitive gaussians,   263 cartesian basis functions
    57 alpha electrons       57 beta electrons
       nuclear repulsion energy       851.6265665193 Hartrees.
 IExCor=    0 DFT=F Ex=HF Corr=None ExCW=0 ScaHFX=  1.000000
 ScaDFX=  1.000000  1.000000  1.000000  1.000000 ScalE2=  1.000000  1.000000
 IRadAn=      5 IRanWt=     -1 IRanGd=            0 ICorTp=0 IEmpDi=  4
 NAtoms=   34 NActive=   34 NUniq=   34 SFac= 1.00D+00 NAtFMM=   60 NAOKFM=F Big=F
 Integral buffers will be    131072 words long.
 Raffenetti 1 integral format.
 Two-electron integral symmetry is turned on.
 Leave Link  301 at Thu May  6 10:45:45 2021, MaxMem=   524288000 cpu:               0.3 elap:               0.2
 (Enter /opt/gaussian/g16_legacy/l302.exe)
 NPDir=0 NMtPBC=     1 NCelOv=     1 NCel=       1 NClECP=     1 NCelD=      1
         NCelK=      1 NCelE2=     1 NClLst=     1 CellRange=     0.0.
 One-electron integrals computed using PRISM.
 One-electron integral symmetry used in STVInt
 NBasis=   263 RedAO= T EigKep=  4.78D-04  NBF=   263
 NBsUse=   263 1.00D-06 EigRej= -1.00D+00 NBFU=   263
 Leave Link  302 at Thu May  6 10:45:46 2021, MaxMem=   524288000 cpu:               0.9 elap:               0.7
 (Enter /opt/gaussian/g16_legacy/l303.exe)
 DipDrv:  MaxL=1.
 Leave Link  303 at Thu May  6 10:45:46 2021, MaxMem=   524288000 cpu:               0.2 elap:               0.1
 (Enter /opt/gaussian/g16_legacy/l401.exe)
 ExpMin= 1.61D-01 ExpMax= 5.48D+03 ExpMxC= 8.25D+02 IAcc=3 IRadAn=         5 AccDes= 0.00D+00
 Harris functional with IExCor=  205 and IRadAn=       5 diagonalized for initial guess.
 HarFok:  IExCor=  205 AccDes= 0.00D+00 IRadAn=         5 IDoV= 1 UseB2=F ITyADJ=14
 ICtDFT=  3500011 ScaDFX=  1.000000  1.000000  1.000000  1.000000
 FoFCou: FMM=F IPFlag=           0 FMFlag=      100000 FMFlg1=           0
         NFxFlg=           0 DoJE=T BraDBF=F KetDBF=T FulRan=T
         wScrn=  0.000000 ICntrl=       500 IOpCl=  0 I1Cent=   200000004 NGrid=           0
         NMat0=    1 NMatS0=      1 NMatT0=    0 NMatD0=    1 NMtDS0=    0 NMtDT0=    0
 Petite list used in FoFCou.
 Harris En= -670.655740334836    
 JPrj=0 DoOrth=F DoCkMO=F.
 Leave Link  401 at Thu May  6 10:45:53 2021, MaxMem=   524288000 cpu:              13.5 elap:               6.9
 (Enter /opt/gaussian/g16_legacy/l502.exe)
 Integral symmetry usage will be decided dynamically.
 Closed shell SCF:
 Using DIIS extrapolation, IDIIS=  1040.
 NGot=   524288000 LenX=   524144919 LenY=   524075309
 Requested convergence on RMS density matrix=1.00D-08 within 128 cycles.
 Requested convergence on MAX density matrix=1.00D-06.
 Requested convergence on             energy=1.00D-06.
 No special actions if energy rises.
 Fock matrices will be formed incrementally for  20 cycles.
 Integral accuracy reduced to 1.0D-05 until final iterations.

 Cycle   1  Pass 0  IDiag  1:
 FoFJK:  IHMeth= 1 ICntrl=       0 DoSepK=F KAlg= 0 I1Cent=           0 FoldK=F
 IRaf= 630000000 NMat=       1 IRICut=       1 DoRegI=T DoRafI=F ISym2E= 0 IDoP0=0 IntGTp=1.
 FoFCou: FMM=F IPFlag=           0 FMFlag=      100000 FMFlg1=           0
         NFxFlg=           0 DoJE=F BraDBF=F KetDBF=F FulRan=T
         wScrn=  0.000000 ICntrl=         0 IOpCl=  0 I1Cent=           0 NGrid=           0
         NMat0=    1 NMatS0=      1 NMatT0=    0 NMatD0=    1 NMtDS0=    0 NMtDT0=    0
 Symmetry not used in FoFCou.
 E= -668.740127530521    
 DIIS: error= 6.34D-02 at cycle   1 NSaved=   1.
 NSaved= 1 IEnMin= 1 EnMin= -668.740127530521     IErMin= 1 ErrMin= 6.34D-02
 ErrMax= 6.34D-02  0.00D+00 EMaxC= 1.00D-01 BMatC= 1.17D+00 BMatP= 1.17D+00
 IDIUse=3 WtCom= 3.66D-01 WtEn= 6.34D-01
 Coeff-Com:  0.100D+01
 Coeff-En:   0.100D+01
 Coeff:      0.100D+01
 Gap=     0.555 Goal=   None    Shift=    0.000
 GapD=    0.555 DampG=2.000 DampE=0.500 DampFc=1.0000 IDamp=-1.
 RMSDP=4.59D-03 MaxDP=1.19D-01              OVMax= 1.51D-01

 Cycle   2  Pass 0  IDiag  1:
 RMSU=  4.47D-03    CP:  9.48D-01
 E= -669.358258377690     Delta-E=       -0.618130847169 Rises=F Damp=F
 DIIS: error= 3.84D-02 at cycle   2 NSaved=   2.
 NSaved= 2 IEnMin= 2 EnMin= -669.358258377690     IErMin= 2 ErrMin= 3.84D-02
 ErrMax= 3.84D-02  0.00D+00 EMaxC= 1.00D-01 BMatC= 2.18D-01 BMatP= 1.17D+00
 IDIUse=3 WtCom= 6.16D-01 WtEn= 3.84D-01
 Coeff-Com:  0.247D+00 0.753D+00
 Coeff-En:   0.000D+00 0.100D+01
 Coeff:      0.152D+00 0.848D+00
 Gap=     0.585 Goal=   None    Shift=    0.000
 RMSDP=1.86D-03 MaxDP=8.90D-02 DE=-6.18D-01 OVMax= 1.26D-01

 Cycle   3  Pass 0  IDiag  1:
 RMSU=  1.47D-03    CP:  9.57D-01  7.49D-01
 E= -669.502356813327     Delta-E=       -0.144098435637 Rises=F Damp=F
 DIIS: error= 2.12D-02 at cycle   3 NSaved=   3.
 NSaved= 3 IEnMin= 3 EnMin= -669.502356813327     IErMin= 3 ErrMin= 2.12D-02
 ErrMax= 2.12D-02  0.00D+00 EMaxC= 1.00D-01 BMatC= 4.29D-02 BMatP= 2.18D-01
 IDIUse=3 WtCom= 7.88D-01 WtEn= 2.12D-01
 Coeff-Com: -0.979D-02 0.289D+00 0.721D+00
 Coeff-En:   0.000D+00 0.000D+00 0.100D+01
 Coeff:     -0.771D-02 0.228D+00 0.780D+00
 Gap=     0.426 Goal=   None    Shift=    0.000
 RMSDP=6.63D-04 MaxDP=3.58D-02 DE=-1.44D-01 OVMax= 5.65D-02

 Cycle   4  Pass 0  IDiag  1:
 RMSU=  4.13D-04    CP:  9.55D-01  8.37D-01  7.74D-01
 E= -669.532134158571     Delta-E=       -0.029777345244 Rises=F Damp=F
 DIIS: error= 7.29D-03 at cycle   4 NSaved=   4.
 NSaved= 4 IEnMin= 4 EnMin= -669.532134158571     IErMin= 4 ErrMin= 7.29D-03
 ErrMax= 7.29D-03  0.00D+00 EMaxC= 1.00D-01 BMatC= 4.18D-03 BMatP= 4.29D-02
 IDIUse=3 WtCom= 9.27D-01 WtEn= 7.29D-02
 Coeff-Com: -0.134D-01 0.473D-01 0.310D+00 0.656D+00
 Coeff-En:   0.000D+00 0.000D+00 0.000D+00 0.100D+01
 Coeff:     -0.124D-01 0.438D-01 0.288D+00 0.681D+00
 Gap=     0.413 Goal=   None    Shift=    0.000
 RMSDP=1.97D-04 MaxDP=1.17D-02 DE=-2.98D-02 OVMax= 1.75D-02

 Cycle   5  Pass 0  IDiag  1:
 RMSU=  9.97D-05    CP:  9.55D-01  8.35D-01  8.60D-01  7.29D-01
 E= -669.535347577417     Delta-E=       -0.003213418846 Rises=F Damp=F
 DIIS: error= 6.39D-04 at cycle   5 NSaved=   5.
 NSaved= 5 IEnMin= 5 EnMin= -669.535347577417     IErMin= 5 ErrMin= 6.39D-04
 ErrMax= 6.39D-04  0.00D+00 EMaxC= 1.00D-01 BMatC= 8.14D-05 BMatP= 4.18D-03
 IDIUse=3 WtCom= 9.94D-01 WtEn= 6.39D-03
 Coeff-Com:  0.211D-02-0.217D-01-0.806D-01-0.919D-02 0.111D+01
 Coeff-En:   0.000D+00 0.000D+00 0.000D+00 0.000D+00 0.100D+01
 Coeff:      0.210D-02-0.216D-01-0.801D-01-0.913D-02 0.111D+01
 Gap=     0.414 Goal=   None    Shift=    0.000
 RMSDP=5.45D-05 MaxDP=2.14D-03 DE=-3.21D-03 OVMax= 4.93D-03

 Cycle   6  Pass 0  IDiag  1:
 RMSU=  2.47D-05    CP:  9.55D-01  8.37D-01  8.71D-01  8.20D-01  1.23D+00
 E= -669.535472355009     Delta-E=       -0.000124777592 Rises=F Damp=F
 DIIS: error= 3.15D-04 at cycle   6 NSaved=   6.
 NSaved= 6 IEnMin= 6 EnMin= -669.535472355009     IErMin= 6 ErrMin= 3.15D-04
 ErrMax= 3.15D-04  0.00D+00 EMaxC= 1.00D-01 BMatC= 5.78D-06 BMatP= 8.14D-05
 IDIUse=3 WtCom= 9.97D-01 WtEn= 3.15D-03
 Coeff-Com:  0.123D-02-0.705D-02-0.346D-01-0.457D-01 0.138D+00 0.948D+00
 Coeff-En:   0.000D+00 0.000D+00 0.000D+00 0.000D+00 0.000D+00 0.100D+01
 Coeff:      0.123D-02-0.703D-02-0.345D-01-0.455D-01 0.137D+00 0.949D+00
 Gap=     0.414 Goal=   None    Shift=    0.000
 RMSDP=1.72D-05 MaxDP=5.91D-04 DE=-1.25D-04 OVMax= 1.68D-03

 Cycle   7  Pass 0  IDiag  1:
 RMSU=  8.77D-06    CP:  9.55D-01  8.38D-01  8.74D-01  8.31D-01  1.36D+00
                    CP:  1.17D+00
 E= -669.535487021464     Delta-E=       -0.000014666455 Rises=F Damp=F
 DIIS: error= 1.61D-04 at cycle   7 NSaved=   7.
 NSaved= 7 IEnMin= 7 EnMin= -669.535487021464     IErMin= 7 ErrMin= 1.61D-04
 ErrMax= 1.61D-04  0.00D+00 EMaxC= 1.00D-01 BMatC= 1.15D-06 BMatP= 5.78D-06
 IDIUse=3 WtCom= 9.98D-01 WtEn= 1.61D-03
 Coeff-Com: -0.250D-03 0.265D-02 0.982D-02 0.191D-02-0.152D+00 0.243D-01
 Coeff-Com:  0.111D+01
 Coeff-En:   0.000D+00 0.000D+00 0.000D+00 0.000D+00 0.000D+00 0.000D+00
 Coeff-En:   0.100D+01
 Coeff:     -0.250D-03 0.264D-02 0.981D-02 0.191D-02-0.151D+00 0.243D-01
 Coeff:      0.111D+01
 Gap=     0.414 Goal=   None    Shift=    0.000
 RMSDP=8.86D-06 MaxDP=5.45D-04 DE=-1.47D-05 OVMax= 1.34D-03

 Initial convergence to 1.0D-05 achieved.  Increase integral accuracy.
 Cycle   8  Pass 1  IDiag  1:
 E= -669.535490590125     Delta-E=       -0.000003568660 Rises=F Damp=F
 DIIS: error= 1.01D-04 at cycle   1 NSaved=   1.
 NSaved= 1 IEnMin= 1 EnMin= -669.535490590125     IErMin= 1 ErrMin= 1.01D-04
 ErrMax= 1.01D-04  0.00D+00 EMaxC= 1.00D-01 BMatC= 3.22D-07 BMatP= 3.22D-07
 IDIUse=3 WtCom= 9.99D-01 WtEn= 1.01D-03
 Coeff-Com:  0.100D+01
 Coeff-En:   0.100D+01
 Coeff:      0.100D+01
 Gap=     0.414 Goal=   None    Shift=    0.000
 RMSDP=8.86D-06 MaxDP=5.45D-04 DE=-3.57D-06 OVMax= 5.29D-04

 Cycle   9  Pass 1  IDiag  1:
 RMSU=  9.34D-06    CP:  1.00D+00
 E= -669.535491558576     Delta-E=       -0.000000968451 Rises=F Damp=F
 DIIS: error= 5.82D-05 at cycle   2 NSaved=   2.
 NSaved= 2 IEnMin= 2 EnMin= -669.535491558576     IErMin= 2 ErrMin= 5.82D-05
 ErrMax= 5.82D-05  0.00D+00 EMaxC= 1.00D-01 BMatC= 1.12D-07 BMatP= 3.22D-07
 IDIUse=1 WtCom= 1.00D+00 WtEn= 0.00D+00
 Coeff-Com: -0.793D-02 0.101D+01
 Coeff:     -0.793D-02 0.101D+01
 Gap=     0.414 Goal=   None    Shift=    0.000
 RMSDP=2.30D-06 MaxDP=1.21D-04 DE=-9.68D-07 OVMax= 3.86D-04

 Cycle  10  Pass 1  IDiag  1:
 RMSU=  2.06D-06    CP:  1.00D+00  1.11D+00
 E= -669.535491964751     Delta-E=       -0.000000406175 Rises=F Damp=F
 DIIS: error= 4.69D-05 at cycle   3 NSaved=   3.
 NSaved= 3 IEnMin= 3 EnMin= -669.535491964751     IErMin= 3 ErrMin= 4.69D-05
 ErrMax= 4.69D-05  0.00D+00 EMaxC= 1.00D-01 BMatC= 5.13D-08 BMatP= 1.12D-07
 IDIUse=1 WtCom= 1.00D+00 WtEn= 0.00D+00
 Coeff-Com: -0.458D+00 0.101D+00 0.136D+01
 Coeff:     -0.458D+00 0.101D+00 0.136D+01
 Gap=     0.414 Goal=   None    Shift=    0.000
 RMSDP=2.80D-06 MaxDP=1.14D-04 DE=-4.06D-07 OVMax= 4.18D-04

 Cycle  11  Pass 1  IDiag  1:
 RMSU=  1.52D-06    CP:  1.00D+00  1.24D+00  1.98D+00
 E= -669.535492251031     Delta-E=       -0.000000286280 Rises=F Damp=F
 DIIS: error= 1.18D-05 at cycle   4 NSaved=   4.
 NSaved= 4 IEnMin= 4 EnMin= -669.535492251031     IErMin= 4 ErrMin= 1.18D-05
 ErrMax= 1.18D-05  0.00D+00 EMaxC= 1.00D-01 BMatC= 4.88D-09 BMatP= 5.13D-08
 IDIUse=1 WtCom= 1.00D+00 WtEn= 0.00D+00
 Coeff-Com:  0.688D-03-0.218D+00-0.161D-01 0.123D+01
 Coeff:      0.688D-03-0.218D+00-0.161D-01 0.123D+01
 Gap=     0.414 Goal=   None    Shift=    0.000
 RMSDP=1.16D-06 MaxDP=5.11D-05 DE=-2.86D-07 OVMax= 1.83D-04

 Cycle  12  Pass 1  IDiag  1:
 RMSU=  1.89D-07    CP:  1.00D+00  1.26D+00  2.48D+00  1.30D+00
 E= -669.535492281095     Delta-E=       -0.000000030064 Rises=F Damp=F
 DIIS: error= 1.75D-06 at cycle   5 NSaved=   5.
 NSaved= 5 IEnMin= 5 EnMin= -669.535492281095     IErMin= 5 ErrMin= 1.75D-06
 ErrMax= 1.75D-06  0.00D+00 EMaxC= 1.00D-01 BMatC= 5.74D-10 BMatP= 4.88D-09
 IDIUse=1 WtCom= 1.00D+00 WtEn= 0.00D+00
 Coeff-Com:  0.259D-01-0.894D-01-0.746D-01 0.474D+00 0.664D+00
 Coeff:      0.259D-01-0.894D-01-0.746D-01 0.474D+00 0.664D+00
 Gap=     0.414 Goal=   None    Shift=    0.000
 RMSDP=1.03D-07 MaxDP=3.82D-06 DE=-3.01D-08 OVMax= 1.14D-05

 Cycle  13  Pass 1  IDiag  1:
 RMSU=  7.42D-08    CP:  1.00D+00  1.26D+00  2.50D+00  1.34D+00  9.84D-01
 E= -669.535492281722     Delta-E=       -0.000000000628 Rises=F Damp=F
 DIIS: error= 1.20D-06 at cycle   6 NSaved=   6.
 NSaved= 6 IEnMin= 6 EnMin= -669.535492281722     IErMin= 6 ErrMin= 1.20D-06
 ErrMax= 1.20D-06  0.00D+00 EMaxC= 1.00D-01 BMatC= 3.89D-11 BMatP= 5.74D-10
 IDIUse=1 WtCom= 1.00D+00 WtEn= 0.00D+00
 Coeff-Com: -0.654D-03 0.339D-01 0.399D-02-0.196D+00-0.701D-01 0.123D+01
 Coeff:     -0.654D-03 0.339D-01 0.399D-02-0.196D+00-0.701D-01 0.123D+01
 Gap=     0.414 Goal=   None    Shift=    0.000
 RMSDP=5.52D-08 MaxDP=2.87D-06 DE=-6.28D-10 OVMax= 6.46D-06

 Cycle  14  Pass 1  IDiag  1:
 RMSU=  2.51D-08    CP:  1.00D+00  1.26D+00  2.51D+00  1.35D+00  1.15D+00
                    CP:  1.32D+00
 E= -669.535492281867     Delta-E=       -0.000000000144 Rises=F Damp=F
 DIIS: error= 1.95D-07 at cycle   7 NSaved=   7.
 NSaved= 7 IEnMin= 7 EnMin= -669.535492281867     IErMin= 7 ErrMin= 1.95D-07
 ErrMax= 1.95D-07  0.00D+00 EMaxC= 1.00D-01 BMatC= 7.73D-12 BMatP= 3.89D-11
 IDIUse=1 WtCom= 1.00D+00 WtEn= 0.00D+00
 Coeff-Com: -0.312D-02 0.164D-01 0.101D-01-0.933D-01-0.120D+00 0.296D+00
 Coeff-Com:  0.894D+00
 Coeff:     -0.312D-02 0.164D-01 0.101D-01-0.933D-01-0.120D+00 0.296D+00
 Coeff:      0.894D+00
 Gap=     0.414 Goal=   None    Shift=    0.000
 RMSDP=1.66D-08 MaxDP=7.38D-07 DE=-1.44D-10 OVMax= 1.49D-06

 Cycle  15  Pass 1  IDiag  1:
 RMSU=  9.39D-09    CP:  1.00D+00  1.27D+00  2.52D+00  1.35D+00  1.18D+00
                    CP:  1.45D+00  1.12D+00
 E= -669.535492281880     Delta-E=       -0.000000000013 Rises=F Damp=F
 DIIS: error= 9.50D-08 at cycle   8 NSaved=   8.
 NSaved= 8 IEnMin= 8 EnMin= -669.535492281880     IErMin= 8 ErrMin= 9.50D-08
 ErrMax= 9.50D-08  0.00D+00 EMaxC= 1.00D-01 BMatC= 9.18D-13 BMatP= 7.73D-12
 IDIUse=1 WtCom= 1.00D+00 WtEn= 0.00D+00
 Coeff-Com: -0.171D-04-0.420D-02 0.390D-03 0.231D-01-0.850D-02-0.123D+00
 Coeff-Com:  0.754D-02 0.110D+01
 Coeff:     -0.171D-04-0.420D-02 0.390D-03 0.231D-01-0.850D-02-0.123D+00
 Coeff:      0.754D-02 0.110D+01
 Gap=     0.414 Goal=   None    Shift=    0.000
 RMSDP=6.57D-09 MaxDP=3.93D-07 DE=-1.34D-11 OVMax= 6.55D-07

 SCF Done:  E(RHF) =  -669.535492282     A.U. after   15 cycles
            NFock= 15  Conv=0.66D-08     -V/T= 2.0024
 KE= 6.679612557902D+02 PE=-3.266040038821D+03 EE= 1.076916724230D+03
 Leave Link  502 at Thu May  6 10:46:40 2021, MaxMem=   524288000 cpu:              88.0 elap:              46.9
 (Enter /opt/gaussian/g16_legacy/l801.exe)
 ExpMin= 1.61D-01 ExpMax= 5.48D+03 ExpMxC= 8.25D+02 IAcc=3 IRadAn=         5 AccDes= 0.00D+00
 HarFok:  IExCor=  205 AccDes= 0.00D+00 IRadAn=         5 IDoV=-2 UseB2=F ITyADJ=14
 ICtDFT= 12500011 ScaDFX=  1.000000  1.000000  1.000000  1.000000
 Largest valence mixing into a core orbital is  1.97D-04
 Largest core mixing into a valence orbital is  4.00D-05
 Range of M.O.s used for correlation:    16   263
 NBasis=   263 NAE=    57 NBE=    57 NFC=    15 NFV=     0
 NROrb=    248 NOA=    42 NOB=    42 NVA=   206 NVB=   206
 Leave Link  801 at Thu May  6 10:46:41 2021, MaxMem=   524288000 cpu:               2.0 elap:               1.2
 (Enter /opt/gaussian/g16_legacy/l906.exe)
 FulOut=F Deriv=F AODrv=F NAtomX=    34
   MMem=         113  MDisk=          42 MDiskD=          42
  W3Min=     2275476 MinDsk=     2420380 NBas6D=         263
 NBas2D=       35121    NTT=       34716    LW2=     2000000
    MDV=   523968466 MDiskM=       27564 NBas2p=       20625
 Fully direct method using O(OVN) memory.
 IMap=   1   2   3   4   5   6   7   8   9  10  11  12  13  14  15  16  17  18  19  20
 IMap=  21  22  23  24  25  26  27  28  29  30  31  32  33  34  35  36  37  38  39  40
 IMap=  41  42
 JobTyp=1 Pass  1:  I=   1 to  42 NPSUse=  2 ParTrn=T ParDer=T DoDerP=F.
 Spin components of T(2) and E(2):
     alpha-alpha T2 =       0.9485251458D-01 E2=     -0.2717842981D+00
     alpha-beta  T2 =       0.5258477099D+00 E2=     -0.1547357628D+01
     beta-beta   T2 =       0.9485251458D-01 E2=     -0.2717842981D+00
 The integrals were generated   1 times.
 ANorm=    0.1309791105D+01
 E2 =    -0.2090926224D+01 EUMP2 =    -0.67162641850568D+03
 Leave Link  906 at Thu May  6 10:47:24 2021, MaxMem=   524288000 cpu:              83.3 elap:              42.2
 (Enter /opt/gaussian/g16_legacy/l601.exe)
 Copying SCF densities to generalized density rwf, IOpCl= 0 IROHF=0.

 **********************************************************************

            Population analysis using the SCF density.

 **********************************************************************

 Orbital symmetries:
       Occupied  (A) (A) (A) (A) (A) (A) (A) (A) (A) (A) (A) (A)
                 (A) (A) (A) (A) (A) (A) (A) (A) (A) (A) (A) (A)
                 (A) (A) (A) (A) (A) (A) (A) (A) (A) (A) (A) (A)
                 (A) (A) (A) (A) (A) (A) (A) (A) (A) (A) (A) (A)
                 (A) (A) (A) (A) (A) (A) (A) (A) (A)
       Virtual   (A) (A) (A) (A) (A) (A) (A) (A) (A) (A) (A) (A)
                 (A) (A) (A) (A) (A) (A) (A) (A) (A) (A) (A) (A)
                 (A) (A) (A) (A) (A) (A) (A) (A) (A) (A) (A) (A)
                 (A) (A) (A) (A) (A) (A) (A) (A) (A) (A) (A) (A)
                 (A) (A) (A) (A) (A) (A) (A) (A) (A) (A) (A) (A)
                 (A) (A) (A) (A) (A) (A) (A) (A) (A) (A) (A) (A)
                 (A) (A) (A) (A) (A) (A) (A) (A) (A) (A) (A) (A)
                 (A) (A) (A) (A) (A) (A) (A) (A) (A) (A) (A) (A)
                 (A) (A) (A) (A) (A) (A) (A) (A) (A) (A) (A) (A)
                 (A) (A) (A) (A) (A) (A) (A) (A) (A) (A) (A) (A)
                 (A) (A) (A) (A) (A) (A) (A) (A) (A) (A) (A) (A)
                 (A) (A) (A) (A) (A) (A) (A) (A) (A) (A) (A) (A)
                 (A) (A) (A) (A) (A) (A) (A) (A) (A) (A) (A) (A)
                 (A) (A) (A) (A) (A) (A) (A) (A) (A) (A) (A) (A)
                 (A) (A) (A) (A) (A) (A) (A) (A) (A) (A) (A) (A)
                 (A) (A) (A) (A) (A) (A) (A) (A) (A) (A) (A) (A)
                 (A) (A) (A) (A) (A) (A) (A) (A) (A) (A) (A) (A)
                 (A) (A)
 The electronic state is 1-A.
 Alpha  occ. eigenvalues --  -20.60726 -20.60721 -15.85778 -11.31139 -11.27708
 Alpha  occ. eigenvalues --  -11.27692 -11.27447 -11.26728 -11.26669 -11.22553
 Alpha  occ. eigenvalues --  -11.22270 -11.22112 -11.22084 -11.21961 -11.21481
 Alpha  occ. eigenvalues --   -1.59801  -1.39355  -1.19309  -1.09131  -1.08707
 Alpha  occ. eigenvalues --   -1.04710  -1.04270  -0.96736  -0.95543  -0.87765
 Alpha  occ. eigenvalues --   -0.86108  -0.82372  -0.80346  -0.78902  -0.77421
 Alpha  occ. eigenvalues --   -0.71998  -0.71124  -0.70425  -0.65753  -0.64964
 Alpha  occ. eigenvalues --   -0.64751  -0.62099  -0.61653  -0.60115  -0.58322
 Alpha  occ. eigenvalues --   -0.56000  -0.55216  -0.53553  -0.53172  -0.53030
 Alpha  occ. eigenvalues --   -0.52689  -0.50657  -0.48760  -0.48752  -0.48648
 Alpha  occ. eigenvalues --   -0.47355  -0.46455  -0.46349  -0.44761  -0.44514
 Alpha  occ. eigenvalues --   -0.37292  -0.36309
 Alpha virt. eigenvalues --    0.05109   0.11289   0.16605   0.20011   0.22397
 Alpha virt. eigenvalues --    0.23798   0.25907   0.26045   0.26570   0.27664
 Alpha virt. eigenvalues --    0.28542   0.29988   0.30736   0.31442   0.31775
 Alpha virt. eigenvalues --    0.33142   0.33580   0.33852   0.34175   0.34367
 Alpha virt. eigenvalues --    0.35689   0.35717   0.36135   0.37477   0.39125
 Alpha virt. eigenvalues --    0.40228   0.42989   0.43732   0.45493   0.46354
 Alpha virt. eigenvalues --    0.46811   0.47403   0.49553   0.52450   0.57823
 Alpha virt. eigenvalues --    0.67291   0.68310   0.68815   0.69579   0.70675
 Alpha virt. eigenvalues --    0.71146   0.72064   0.74398   0.75790   0.77340
 Alpha virt. eigenvalues --    0.77985   0.79005   0.79230   0.79547   0.79904
 Alpha virt. eigenvalues --    0.80336   0.80859   0.82452   0.83515   0.85840
 Alpha virt. eigenvalues --    0.86301   0.87398   0.87988   0.88088   0.93717
 Alpha virt. eigenvalues --    0.95182   0.95533   0.96758   0.97665   1.00597
 Alpha virt. eigenvalues --    1.00844   1.01939   1.04391   1.04843   1.06416
 Alpha virt. eigenvalues --    1.06920   1.08591   1.08717   1.10091   1.10966
 Alpha virt. eigenvalues --    1.11347   1.14957   1.16421   1.16476   1.17000
 Alpha virt. eigenvalues --    1.17325   1.18798   1.19122   1.19452   1.20042
 Alpha virt. eigenvalues --    1.20291   1.20524   1.20790   1.21195   1.21942
 Alpha virt. eigenvalues --    1.22811   1.23598   1.23980   1.25089   1.26355
 Alpha virt. eigenvalues --    1.27300   1.28347   1.30005   1.31271   1.33730
 Alpha virt. eigenvalues --    1.34704   1.40102   1.40574   1.46683   1.47152
 Alpha virt. eigenvalues --    1.52606   1.53506   1.54903   1.60443   1.65165
 Alpha virt. eigenvalues --    1.65450   1.66538   1.66857   1.67206   1.68659
 Alpha virt. eigenvalues --    1.70485   1.72116   1.72628   1.73338   1.73574
 Alpha virt. eigenvalues --    1.75582   1.79013   1.80916   1.92061   1.97011
 Alpha virt. eigenvalues --    1.99358   1.99878   2.04391   2.04608   2.05194
 Alpha virt. eigenvalues --    2.10105   2.12449   2.12539   2.13299   2.14870
 Alpha virt. eigenvalues --    2.17162   2.21725   2.21800   2.21991   2.24746
 Alpha virt. eigenvalues --    2.24865   2.25097   2.27010   2.27267   2.32091
 Alpha virt. eigenvalues --    2.33113   2.33511   2.35271   2.36224   2.37738
 Alpha virt. eigenvalues --    2.39104   2.42421   2.43001   2.43362   2.44650
 Alpha virt. eigenvalues --    2.45741   2.46916   2.56060   2.56276   2.58137
 Alpha virt. eigenvalues --    2.58642   2.58956   2.59590   2.66105   2.66991
 Alpha virt. eigenvalues --    2.67067   2.70392   2.76238   2.76855   2.79235
 Alpha virt. eigenvalues --    2.81432   2.83539   2.90749   2.91999   2.92206
 Alpha virt. eigenvalues --    2.92686   2.94886   2.98183   2.99938   3.04763
 Alpha virt. eigenvalues --    3.05184   3.07322   3.10721   3.13218   3.18004
 Alpha virt. eigenvalues --    3.23557   3.24582   3.27675   3.43146   3.52966
 Alpha virt. eigenvalues --    3.77035   4.13045   4.28733   4.37884   4.48139
 Alpha virt. eigenvalues --    4.50823   4.52974   4.54880   4.61951   4.71488
 Alpha virt. eigenvalues --    4.72138   4.76731   4.79201   4.87282   4.99152
 Alpha virt. eigenvalues --    5.08986
          Condensed to atoms (all electrons):
               1          2          3          4          5          6
     1  C    4.878513   0.541979  -0.045482  -0.028622  -0.045490   0.541934
     2  C    0.541979   4.932463   0.522793  -0.040339  -0.030139  -0.043371
     3  C   -0.045482   0.522793   4.919523   0.548608  -0.053040  -0.030322
     4  C   -0.028622  -0.040339   0.548608   4.821396   0.548288  -0.040178
     5  C   -0.045490  -0.030139  -0.053040   0.548288   4.920775   0.520860
     6  C    0.541934  -0.043371  -0.030322  -0.040178   0.520860   4.942617
     7  H    0.381456  -0.027970   0.002166   0.000218   0.002169  -0.028279
     8  H   -0.027809   0.382668  -0.027392   0.001564   0.000200   0.002348
     9  H    0.001929  -0.024101   0.368597  -0.019671   0.002563  -0.000063
    10  H    0.001902  -0.000054   0.002552  -0.019568   0.368532  -0.024112
    11  H   -0.027627   0.002300   0.000200   0.001494  -0.026517   0.380676
    12  N    0.000008   0.001508  -0.044689   0.244122  -0.044544   0.001512
    13  O   -0.000003  -0.000028   0.003712  -0.088040   0.004108   0.000779
    14  O   -0.000003   0.000774   0.004058  -0.088013   0.003729  -0.000029
    15  C    0.000000   0.000000  -0.000000   0.000000   0.000000  -0.000000
    16  C   -0.000005  -0.000000   0.000000  -0.000000  -0.000000   0.000023
    17  C   -0.000084   0.000002  -0.000000  -0.000000   0.000009  -0.000692
    18  H   -0.000000  -0.000000   0.000000  -0.000000   0.000000   0.000000
    19  H   -0.000000  -0.000000   0.000000  -0.000000  -0.000000   0.000000
    20  H    0.000001  -0.000000  -0.000000   0.000000   0.000000  -0.000001
    21  H   -0.000002  -0.000000   0.000000  -0.000000  -0.000000   0.000000
    22  H   -0.000002   0.000000  -0.000000   0.000000   0.000001  -0.000041
    23  H   -0.000000  -0.000000   0.000000   0.000000  -0.000001   0.000023
    24  H    0.000371   0.000007  -0.000000  -0.000002   0.000031  -0.000322
    25  C   -0.000000  -0.000000   0.000000   0.000000  -0.000000   0.000000
    26  C    0.000000   0.000000  -0.000000   0.000000   0.000000  -0.000000
    27  C   -0.000000  -0.000000   0.000000   0.000000  -0.000000   0.000000
    28  H   -0.000000  -0.000000   0.000000  -0.000000  -0.000000   0.000000
    29  H   -0.000000   0.000000   0.000000  -0.000000   0.000000  -0.000000
    30  H   -0.000000   0.000000   0.000000  -0.000000   0.000000  -0.000000
    31  H   -0.000000   0.000000   0.000000  -0.000000  -0.000000   0.000000
    32  H    0.000000  -0.000000   0.000000   0.000000   0.000000   0.000000
    33  H   -0.000000   0.000000   0.000000   0.000000   0.000000   0.000000
    34  H    0.000000   0.000000   0.000000   0.000000   0.000000  -0.000000
               7          8          9         10         11         12
     1  C    0.381456  -0.027809   0.001929   0.001902  -0.027627   0.000008
     2  C   -0.027970   0.382668  -0.024101  -0.000054   0.002300   0.001508
     3  C    0.002166  -0.027392   0.368597   0.002552   0.000200  -0.044689
     4  C    0.000218   0.001564  -0.019671  -0.019568   0.001494   0.244122
     5  C    0.002169   0.000200   0.002563   0.368532  -0.026517  -0.044544
     6  C   -0.028279   0.002348  -0.000063  -0.024112   0.380676   0.001512
     7  H    0.446651  -0.001187  -0.000071  -0.000071  -0.001376   0.000002
     8  H   -0.001187   0.447652  -0.001113   0.000007  -0.000092  -0.000049
     9  H   -0.000071  -0.001113   0.392850  -0.000076   0.000007  -0.005361
    10  H   -0.000071   0.000007  -0.000076   0.392271  -0.000955  -0.005361
    11  H   -0.001376  -0.000092   0.000007  -0.000955   0.439377  -0.000049
    12  N    0.000002  -0.000049  -0.005361  -0.005361  -0.000049   5.734978
    13  O    0.000000   0.000000   0.000048   0.009072  -0.000002   0.314990
    14  O    0.000000  -0.000001   0.009041   0.000049   0.000000   0.314932
    15  C   -0.000000   0.000000  -0.000000  -0.000000   0.000001   0.000000
    16  C    0.000012  -0.000000   0.000000   0.000000  -0.000040  -0.000000
    17  C    0.000066   0.000000   0.000000   0.000000   0.000601   0.000000
    18  H    0.000000  -0.000000   0.000000   0.000000  -0.000000  -0.000000
    19  H    0.000000  -0.000000   0.000000   0.000000  -0.000000   0.000000
    20  H   -0.000001   0.000000  -0.000000  -0.000000   0.000003  -0.000000
    21  H    0.000016  -0.000000   0.000000  -0.000000  -0.000000  -0.000000
    22  H   -0.000005   0.000000  -0.000000  -0.000000   0.000293  -0.000000
    23  H   -0.000001  -0.000000   0.000000  -0.000000  -0.000017  -0.000000
    24  H    0.000438   0.000000  -0.000000  -0.000000   0.000863   0.000000
    25  C   -0.000000  -0.000000   0.000000   0.000000  -0.000000  -0.000000
    26  C   -0.000000   0.000000  -0.000000  -0.000000   0.000000   0.000000
    27  C    0.000000  -0.000000   0.000000   0.000000  -0.000000   0.000000
    28  H    0.000000  -0.000000   0.000000   0.000000  -0.000000   0.000000
    29  H    0.000000  -0.000000   0.000000  -0.000000   0.000000  -0.000000
    30  H    0.000000  -0.000000   0.000000  -0.000000   0.000000   0.000000
    31  H    0.000000  -0.000000   0.000000   0.000000  -0.000000   0.000000
    32  H   -0.000000   0.000000   0.000000   0.000000  -0.000000   0.000000
    33  H    0.000000  -0.000000   0.000000   0.000000  -0.000000   0.000000
    34  H   -0.000000   0.000000   0.000000   0.000000   0.000000   0.000000
              13         14         15         16         17         18
     1  C   -0.000003  -0.000003   0.000000  -0.000005  -0.000084  -0.000000
     2  C   -0.000028   0.000774   0.000000  -0.000000   0.000002  -0.000000
     3  C    0.003712   0.004058  -0.000000   0.000000  -0.000000   0.000000
     4  C   -0.088040  -0.088013   0.000000  -0.000000  -0.000000  -0.000000
     5  C    0.004108   0.003729   0.000000  -0.000000   0.000009   0.000000
     6  C    0.000779  -0.000029  -0.000000   0.000023  -0.000692   0.000000
     7  H    0.000000   0.000000  -0.000000   0.000012   0.000066   0.000000
     8  H    0.000000  -0.000001   0.000000  -0.000000   0.000000  -0.000000
     9  H    0.000048   0.009041  -0.000000   0.000000   0.000000   0.000000
    10  H    0.009072   0.000049  -0.000000   0.000000   0.000000   0.000000
    11  H   -0.000002   0.000000   0.000001  -0.000040   0.000601  -0.000000
    12  N    0.314990   0.314932   0.000000  -0.000000   0.000000  -0.000000
    13  O    8.303403  -0.087611  -0.000000   0.000000  -0.000000   0.000000
    14  O   -0.087611   8.303652   0.000000   0.000000  -0.000000   0.000000
    15  C   -0.000000   0.000000   5.082848   0.352331  -0.056977   0.396591
    16  C    0.000000   0.000000   0.352331   5.061914   0.338615  -0.041990
    17  C   -0.000000  -0.000000  -0.056977   0.338615   5.107619  -0.002946
    18  H    0.000000   0.000000   0.396591  -0.041990  -0.002946   0.563785
    19  H   -0.000000   0.000000   0.396309  -0.042038  -0.002953  -0.031289
    20  H   -0.000000  -0.000000  -0.043065   0.399204  -0.039817  -0.002954
    21  H    0.000000   0.000000  -0.043177   0.398635  -0.040370   0.004554
    22  H    0.000000   0.000000  -0.003653  -0.038744   0.391831   0.000161
    23  H    0.000000   0.000000  -0.003650  -0.038014   0.391724   0.002573
    24  H    0.000000   0.000000   0.004370  -0.035471   0.391201  -0.000059
    25  C    0.000000   0.000000   0.355397  -0.051718   0.004049  -0.041308
    26  C    0.000000   0.000000  -0.051824   0.003980  -0.000084  -0.003180
    27  C    0.000000   0.000000   0.004074  -0.000085   0.000001  -0.000052
    28  H    0.000000   0.000000  -0.041798  -0.003334  -0.000052  -0.002791
    29  H    0.000000   0.000000  -0.041809  -0.003345  -0.000051   0.004439
    30  H    0.000000   0.000000  -0.003239  -0.000064  -0.000000   0.002386
    31  H    0.000000   0.000000  -0.003243  -0.000064  -0.000000   0.000236
    32  H    0.000000   0.000000  -0.000069  -0.000000  -0.000000  -0.000001
    33  H    0.000000   0.000000  -0.000069  -0.000000  -0.000000   0.000013
    34  H    0.000000   0.000000  -0.000087   0.000001  -0.000000   0.000001
              19         20         21         22         23         24
     1  C   -0.000000   0.000001  -0.000002  -0.000002  -0.000000   0.000371
     2  C   -0.000000  -0.000000  -0.000000   0.000000  -0.000000   0.000007
     3  C    0.000000  -0.000000   0.000000  -0.000000   0.000000  -0.000000
     4  C   -0.000000   0.000000  -0.000000   0.000000   0.000000  -0.000002
     5  C   -0.000000   0.000000  -0.000000   0.000001  -0.000001   0.000031
     6  C    0.000000  -0.000001   0.000000  -0.000041   0.000023  -0.000322
     7  H    0.000000  -0.000001   0.000016  -0.000005  -0.000001   0.000438
     8  H   -0.000000   0.000000  -0.000000   0.000000  -0.000000   0.000000
     9  H    0.000000  -0.000000   0.000000  -0.000000   0.000000  -0.000000
    10  H    0.000000  -0.000000  -0.000000  -0.000000  -0.000000  -0.000000
    11  H   -0.000000   0.000003  -0.000000   0.000293  -0.000017   0.000863
    12  N    0.000000  -0.000000  -0.000000  -0.000000  -0.000000   0.000000
    13  O   -0.000000  -0.000000   0.000000   0.000000   0.000000   0.000000
    14  O    0.000000  -0.000000   0.000000   0.000000   0.000000   0.000000
    15  C    0.396309  -0.043065  -0.043177  -0.003653  -0.003650   0.004370
    16  C   -0.042038   0.399204   0.398635  -0.038744  -0.038014  -0.035471
    17  C   -0.002953  -0.039817  -0.040370   0.391831   0.391724   0.391201
    18  H   -0.031289  -0.002954   0.004554   0.000161   0.002573  -0.000059
    19  H    0.565295   0.004534  -0.002974   0.002574   0.000164  -0.000057
    20  H    0.004534   0.561408  -0.031676   0.004200  -0.002841  -0.002714
    21  H   -0.002974  -0.031676   0.566148  -0.002851   0.004171  -0.002501
    22  H    0.002574   0.004200  -0.002851   0.547718  -0.028564  -0.029875
    23  H    0.000164  -0.002841   0.004171  -0.028564   0.540371  -0.027426
    24  H   -0.000057  -0.002714  -0.002501  -0.029875  -0.027426   0.549425
    25  C   -0.041463  -0.003118  -0.003141  -0.000067  -0.000070  -0.000084
    26  C   -0.003199  -0.000065  -0.000064  -0.000001  -0.000001   0.000001
    27  C   -0.000052  -0.000000  -0.000001   0.000000  -0.000000  -0.000000
    28  H    0.004453   0.002393   0.000240  -0.000001   0.000013   0.000001
    29  H   -0.002796   0.000240   0.002392   0.000013  -0.000001   0.000001
    30  H    0.000236   0.000017  -0.000003   0.000000  -0.000002   0.000000
    31  H    0.002394  -0.000003   0.000017  -0.000002   0.000000   0.000000
    32  H    0.000013   0.000000  -0.000002   0.000000  -0.000000  -0.000000
    33  H   -0.000001  -0.000002   0.000000  -0.000000   0.000000  -0.000000
    34  H    0.000001   0.000000   0.000000  -0.000000  -0.000000   0.000000
              25         26         27         28         29         30
     1  C   -0.000000   0.000000  -0.000000  -0.000000  -0.000000  -0.000000
     2  C   -0.000000   0.000000  -0.000000  -0.000000   0.000000   0.000000
     3  C    0.000000  -0.000000   0.000000   0.000000   0.000000   0.000000
     4  C    0.000000   0.000000   0.000000  -0.000000  -0.000000  -0.000000
     5  C   -0.000000   0.000000  -0.000000  -0.000000   0.000000   0.000000
     6  C    0.000000  -0.000000   0.000000   0.000000  -0.000000  -0.000000
     7  H   -0.000000  -0.000000   0.000000   0.000000   0.000000   0.000000
     8  H   -0.000000   0.000000  -0.000000  -0.000000  -0.000000  -0.000000
     9  H    0.000000  -0.000000   0.000000   0.000000   0.000000   0.000000
    10  H    0.000000  -0.000000   0.000000   0.000000  -0.000000  -0.000000
    11  H   -0.000000   0.000000  -0.000000  -0.000000   0.000000   0.000000
    12  N   -0.000000   0.000000   0.000000   0.000000  -0.000000   0.000000
    13  O    0.000000   0.000000   0.000000   0.000000   0.000000   0.000000
    14  O    0.000000   0.000000   0.000000   0.000000   0.000000   0.000000
    15  C    0.355397  -0.051824   0.004074  -0.041798  -0.041809  -0.003239
    16  C   -0.051718   0.003980  -0.000085  -0.003334  -0.003345  -0.000064
    17  C    0.004049  -0.000084   0.000001  -0.000052  -0.000051  -0.000000
    18  H   -0.041308  -0.003180  -0.000052  -0.002791   0.004439   0.002386
    19  H   -0.041463  -0.003199  -0.000052   0.004453  -0.002796   0.000236
    20  H   -0.003118  -0.000065  -0.000000   0.002393   0.000240   0.000017
    21  H   -0.003141  -0.000064  -0.000001   0.000240   0.002392  -0.000003
    22  H   -0.000067  -0.000001   0.000000  -0.000001   0.000013   0.000000
    23  H   -0.000070  -0.000001  -0.000000   0.000013  -0.000001  -0.000002
    24  H   -0.000084   0.000001  -0.000000   0.000001   0.000001   0.000000
    25  C    5.083944   0.352159  -0.057288   0.396171   0.396083  -0.043698
    26  C    0.352159   5.060154   0.340655  -0.041623  -0.041630   0.399304
    27  C   -0.057288   0.340655   5.096940  -0.002828  -0.002822  -0.039710
    28  H    0.396171  -0.041623  -0.002828   0.565991  -0.031503  -0.002980
    29  H    0.396083  -0.041630  -0.002822  -0.031503   0.566715   0.004556
    30  H   -0.043698   0.399304  -0.039710  -0.002980   0.004556   0.562938
    31  H   -0.043757   0.399243  -0.039746   0.004558  -0.002972  -0.031551
    32  H   -0.003838  -0.038957   0.391298   0.000158   0.002623   0.004208
    33  H   -0.003832  -0.038933   0.391342   0.002621   0.000158  -0.002889
    34  H    0.004394  -0.035749   0.394338  -0.000059  -0.000059  -0.002503
              31         32         33         34
     1  C   -0.000000   0.000000  -0.000000   0.000000
     2  C    0.000000  -0.000000   0.000000   0.000000
     3  C    0.000000   0.000000   0.000000   0.000000
     4  C   -0.000000   0.000000   0.000000   0.000000
     5  C   -0.000000   0.000000   0.000000   0.000000
     6  C    0.000000   0.000000   0.000000  -0.000000
     7  H    0.000000  -0.000000   0.000000  -0.000000
     8  H   -0.000000   0.000000  -0.000000   0.000000
     9  H    0.000000   0.000000   0.000000   0.000000
    10  H    0.000000   0.000000   0.000000   0.000000
    11  H   -0.000000  -0.000000  -0.000000   0.000000
    12  N    0.000000   0.000000   0.000000   0.000000
    13  O    0.000000   0.000000   0.000000   0.000000
    14  O    0.000000   0.000000   0.000000   0.000000
    15  C   -0.003243  -0.000069  -0.000069  -0.000087
    16  C   -0.000064  -0.000000  -0.000000   0.000001
    17  C   -0.000000  -0.000000  -0.000000  -0.000000
    18  H    0.000236  -0.000001   0.000013   0.000001
    19  H    0.002394   0.000013  -0.000001   0.000001
    20  H   -0.000003   0.000000  -0.000002   0.000000
    21  H    0.000017  -0.000002   0.000000   0.000000
    22  H   -0.000002   0.000000  -0.000000  -0.000000
    23  H    0.000000  -0.000000   0.000000  -0.000000
    24  H    0.000000  -0.000000  -0.000000   0.000000
    25  C   -0.043757  -0.003838  -0.003832   0.004394
    26  C    0.399243  -0.038957  -0.038933  -0.035749
    27  C   -0.039746   0.391298   0.391342   0.394338
    28  H    0.004558   0.000158   0.002621  -0.000059
    29  H   -0.002972   0.002623   0.000158  -0.000059
    30  H   -0.031551   0.004208  -0.002889  -0.002503
    31  H    0.563410  -0.002890   0.004209  -0.002504
    32  H   -0.002890   0.548512  -0.029134  -0.027354
    33  H    0.004209  -0.029134   0.548126  -0.027332
    34  H   -0.002504  -0.027354  -0.027332   0.535097
 Mulliken charges:
               1
     1  C   -0.172962
     2  C   -0.218493
     3  C   -0.171284
     4  C    0.158744
     5  C   -0.171534
     6  C   -0.223364
     7  H    0.225766
     8  H    0.223205
     9  H    0.275420
    10  H    0.275811
    11  H    0.230862
    12  N    0.488001
    13  O   -0.460429
    14  O   -0.460579
    15  C   -0.299260
    16  C   -0.299800
    17  C   -0.481688
    18  H    0.151830
    19  H    0.150849
    20  H    0.154257
    21  H    0.150586
    22  H    0.157013
    23  H    0.161549
    24  H    0.151800
    25  C   -0.298815
    26  C   -0.300187
    27  C   -0.476064
    28  H    0.150372
    29  H    0.149768
    30  H    0.152993
    31  H    0.152663
    32  H    0.155433
    33  H    0.155723
    34  H    0.161815
 Sum of Mulliken charges =  -0.00000
 Mulliken charges with hydrogens summed into heavy atoms:
               1
     1  C    0.052804
     2  C    0.004712
     3  C    0.104136
     4  C    0.158744
     5  C    0.104277
     6  C    0.007498
    12  N    0.488001
    13  O   -0.460429
    14  O   -0.460579
    15  C    0.003419
    16  C    0.005043
    17  C   -0.011325
    25  C    0.001324
    26  C    0.005469
    27  C   -0.003094
 Electronic spatial extent (au):  <R**2>=          11122.1191
 Charge=             -0.0000 electrons
 Dipole moment (field-independent basis, Debye):
    X=             -4.9098    Y=              2.2506    Z=             -0.4355  Tot=              5.4186
 Quadrupole moment (field-independent basis, Debye-Ang):
   XX=           -134.8031   YY=            -90.8481   ZZ=            -94.5368
   XY=             12.6046   XZ=             -1.6610   YZ=              0.3134
 Traceless Quadrupole moment (field-independent basis, Debye-Ang):
   XX=            -28.0738   YY=             15.8812   ZZ=             12.1925
   XY=             12.6046   XZ=             -1.6610   YZ=              0.3134
 Octapole moment (field-independent basis, Debye-Ang**2):
  XXX=           -260.7052  YYY=             14.3270  ZZZ=              3.4510  XYY=             17.1995
  XXY=             59.8718  XXZ=            -11.2512  XZZ=              9.5057  YZZ=             -6.0510
  YYZ=              0.5509  XYZ=              3.7128
 Hexadecapole moment (field-independent basis, Debye-Ang**3):
 XXXX=         -16609.5561 YYYY=           -652.8616 ZZZZ=           -152.3421 XXXY=            416.4104
 XXXZ=            -82.0718 YYYX=             53.5135 YYYZ=              1.4475 ZZZX=             13.3271
 ZZZY=              1.7747 XXYY=          -2543.1241 XXZZ=          -2355.4472 YYZZ=           -142.8179
 XXYZ=              3.4005 YYXZ=              6.2640 ZZXY=            -26.2240
 N-N= 8.516265665193D+02 E-N=-3.266040035753D+03  KE= 6.679612557902D+02
 Leave Link  601 at Thu May  6 10:47:24 2021, MaxMem=   524288000 cpu:               0.5 elap:               0.5
 (Enter /opt/gaussian/g16_legacy/l9999.exe)
 1\1\GINC-TRUENO90\SP\RMP2-FC\6-31G(d)\C12H19N1O2\JRAMOS\06-May-2021\0\
 \#p 6-31g* mp2\\Input file generated by CHIRIPA (05-May-2021 14:55:19)
 \\0,1\C,0,1.914143,0.,0.\C,0,1.214143,1.211,0.\C,0,-0.183857,1.223,0.\
 C,0,-0.852857,0.,0.\C,0,-0.183857,-1.223,0.\C,0,1.214143,-1.211,0.\H,0
 ,3.000143,0.,0.\H,0,1.755143,2.153,0.\H,0,-0.750857,2.146,0.\H,0,-0.75
 0857,-2.146,0.\H,0,1.755143,-2.153,0.\N,0,-2.332857,0.,0.\O,0,-2.89885
 7,-1.091,0.\O,0,-2.898857,1.091,0.\C,0,6.882684,-4.485239,-1.24235\C,0
 ,5.972542,-3.256974,-1.210899\C,0,4.501044,-3.616749,-1.00341\H,0,6.55
 1673,-5.158536,-2.044875\H,0,6.769338,-5.041138,-0.301327\H,0,6.088606
 ,-2.702807,-2.151135\H,0,6.305876,-2.586432,-0.408479\H,0,4.364562,-4.
 149897,-0.056982\H,0,4.146057,-4.266934,-1.809539\H,0,3.868318,-2.7239
 18,-0.984146\C,0,8.356806,-4.14179,-1.449076\C,0,9.266949,-5.370055,-1
 .480527\C,0,10.738446,-5.01028,-1.688016\H,0,8.470153,-3.585891,-2.390
 099\H,0,8.687818,-3.468492,-0.64655\H,0,8.933614,-6.040597,-2.282947\H
 ,0,9.150885,-5.924222,-0.540291\H,0,11.093433,-4.360095,-0.881886\H,0,
 10.874928,-4.477131,-2.634444\H,0,11.371173,-5.90311,-1.70728\\Version
 =EM64L-G16RevA.03\State=1-A\HF=-669.5354923\MP2=-671.6264185\RMSD=6.57
 1e-09\PG=C01 [X(C12H19N1O2)]\\@


 THERE ARE PEOPLE SO ADDICTED TO EXAGERATING THEY
 CAN'T TELL THE TRUTH WITHOUT LYING. -- FORTUNE COOKIE
 Job cpu time:       0 days  0 hours  3 minutes  9.7 seconds.
 Elapsed time:       0 days  0 hours  1 minutes 39.6 seconds.
 File lengths (MBytes):  RWF=     43 Int=      0 D2E=      0 Chk=      6 Scr=      1
 Normal termination of Gaussian 16 at Thu May  6 10:47:25 2021.
