 Entering Gaussian System, Link 0=/opt/gaussian/g16_legacy/g16
 Input=gaussian_02844_1_1.com
 Output=gaussian_02844_1_1.log
 Initial command:
 /opt/gaussian/g16_legacy/l1.exe "/scratch-local/jramos/2584010/Gau-26695.inp" -scrdir="/scratch-local/jramos/2584010/"
 Entering Link 1 = /opt/gaussian/g16_legacy/l1.exe PID=     26696.
  
 Copyright (c) 1988,1990,1992,1993,1995,1998,2003,2009,2016,
            Gaussian, Inc.  All Rights Reserved.
  
 This is part of the Gaussian(R) 16 program.  It is based on
 the Gaussian(R) 09 system (copyright 2009, Gaussian, Inc.),
 the Gaussian(R) 03 system (copyright 2003, Gaussian, Inc.),
 the Gaussian(R) 98 system (copyright 1998, Gaussian, Inc.),
 the Gaussian(R) 94 system (copyright 1995, Gaussian, Inc.),
 the Gaussian 92(TM) system (copyright 1992, Gaussian, Inc.),
 the Gaussian 90(TM) system (copyright 1990, Gaussian, Inc.),
 the Gaussian 88(TM) system (copyright 1988, Gaussian, Inc.),
 the Gaussian 86(TM) system (copyright 1986, Carnegie Mellon
 University), and the Gaussian 82(TM) system (copyright 1983,
 Carnegie Mellon University). Gaussian is a federally registered
 trademark of Gaussian, Inc.
  
 This software contains proprietary and confidential information,
 including trade secrets, belonging to Gaussian, Inc.
  
 This software is provided under written license and may be
 used, copied, transmitted, or stored only in accord with that
 written license.
  
 The following legend is applicable only to US Government
 contracts under FAR:
  
                    RESTRICTED RIGHTS LEGEND
  
 Use, reproduction and disclosure by the US Government is
 subject to restrictions as set forth in subparagraphs (a)
 and (c) of the Commercial Computer Software - Restricted
 Rights clause in FAR 52.227-19.
  
 Gaussian, Inc.
 340 Quinnipiac St., Bldg. 40, Wallingford CT 06492
  
  
 ---------------------------------------------------------------
 Warning -- This program may not be used in any manner that
 competes with the business of Gaussian, Inc. or will provide
 assistance to any competitor of Gaussian, Inc.  The licensee
 of this program is prohibited from giving any competitor of
 Gaussian, Inc. access to this program.  By using this program,
 the user acknowledges that Gaussian, Inc. is engaged in the
 business of creating and licensing software in the field of
 computational chemistry and represents and warrants to the
 licensee that it is not a competitor of Gaussian, Inc. and that
 it will not use this program in any manner prohibited above.
 ---------------------------------------------------------------
  

 Cite this work as:
 Gaussian 16, Revision A.03,
 M. J. Frisch, G. W. Trucks, H. B. Schlegel, G. E. Scuseria, 
 M. A. Robb, J. R. Cheeseman, G. Scalmani, V. Barone, 
 G. A. Petersson, H. Nakatsuji, X. Li, M. Caricato, A. V. Marenich, 
 J. Bloino, B. G. Janesko, R. Gomperts, B. Mennucci, H. P. Hratchian, 
 J. V. Ortiz, A. F. Izmaylov, J. L. Sonnenberg, D. Williams-Young, 
 F. Ding, F. Lipparini, F. Egidi, J. Goings, B. Peng, A. Petrone, 
 T. Henderson, D. Ranasinghe, V. G. Zakrzewski, J. Gao, N. Rega, 
 G. Zheng, W. Liang, M. Hada, M. Ehara, K. Toyota, R. Fukuda, 
 J. Hasegawa, M. Ishida, T. Nakajima, Y. Honda, O. Kitao, H. Nakai, 
 T. Vreven, K. Throssell, J. A. Montgomery, Jr., J. E. Peralta, 
 F. Ogliaro, M. J. Bearpark, J. J. Heyd, E. N. Brothers, K. N. Kudin, 
 V. N. Staroverov, T. A. Keith, R. Kobayashi, J. Normand, 
 K. Raghavachari, A. P. Rendell, J. C. Burant, S. S. Iyengar, 
 J. Tomasi, M. Cossi, J. M. Millam, M. Klene, C. Adamo, R. Cammi, 
 J. W. Ochterski, R. L. Martin, K. Morokuma, O. Farkas, 
 J. B. Foresman, and D. J. Fox, Gaussian, Inc., Wallingford CT, 2016.
 
 ******************************************
 Gaussian 16:  EM64L-G16RevA.03 25-Dec-2016
                 5-May-2021 
 ******************************************
 %chk=gaussian_02844_1_1.chk
 %nproc=2
 Will use up to    2 processors via shared memory.
 %mem=4000Mb
 -------------
 #p 6-31g* mp2
 -------------
 1/38=1,172=1/1;
 2/12=2,17=6,18=5,40=1/2;
 3/5=1,6=6,7=1,11=9,25=1,30=1/1,2,3;
 4//1;
 5/5=2,38=5/2;
 8/10=2/1;
 9/16=-3/6;
 6/7=2,8=2,9=2,10=2/1;
 99/5=1,9=1/99;
 Leave Link    1 at Wed May  5 16:44:02 2021, MaxMem=   524288000 cpu:               0.1 elap:               0.1
 (Enter /opt/gaussian/g16_legacy/l101.exe)
 ------------------------------------------------------
 Input file generated by CHIRIPA (05-May-2021 14:51:11)
 ------------------------------------------------------
 Symbolic Z-matrix:
 Charge =  0 Multiplicity = 1
 C                    -0.666    -0.374     0. 
 C                    -1.882     0.553     0. 
 C                    -3.207    -0.21      0. 
 H                    -0.713    -1.03     -0.88 
 H                    -0.713    -1.029     0.881 
 H                    -1.832     1.207    -0.88 
 H                    -1.832     1.207     0.88 
 H                    -3.283    -0.85      0.885 
 H                    -3.283    -0.85     -0.885 
 H                    -4.063     0.472     0. 
 C                     0.666     0.374     0. 
 C                     1.882    -0.553     0. 
 C                     3.207     0.21      0. 
 H                     0.713     1.029    -0.881 
 H                     0.713     1.03      0.88 
 H                     1.832    -1.207    -0.88 
 H                     1.832    -1.207     0.88 
 H                     3.283     0.85      0.885 
 H                     3.283     0.85     -0.885 
 H                     4.063    -0.472     0. 
 C                    -4.27362  -4.10037  -1.41317 
 C                    -5.64427  -3.60996  -1.88092 
 C                    -5.72647  -2.08607  -1.97476 
 H                    -4.04807  -3.65852  -0.43294 
 H                    -3.50427  -3.73274  -2.10623 
 H                    -6.41095  -3.97957  -1.18795 
 H                    -5.86667  -4.05318  -2.86005 
 H                    -4.98291  -1.70294  -2.68112 
 H                    -5.53029  -1.62891  -0.99951 
 H                    -6.71477  -1.75728  -2.31094 
 C                    -4.17584  -5.62169  -1.31436 
 C                    -2.80519  -6.11211  -0.84661 
 C                    -2.72299  -7.63599  -0.75276 
 H                    -4.94519  -5.98933  -0.62129 
 H                    -4.40139  -6.06354  -2.29458 
 H                    -2.58279  -5.66888   0.13253 
 H                    -2.0385   -5.7425   -1.53957 
 H                    -2.91917  -8.09316  -1.72801 
 H                    -3.46654  -8.01913  -0.04641 
 H                    -1.73469  -7.96479  -0.41658 
 
 ITRead=  0  0  0  0  0  0  0  0  0  0  0  0  0  0  0  0  0  0  0  0
 ITRead=  0  0  0  0  0  0  0  0  0  0  0  0  0  0  0  0  0  0  0  0
 MicOpt= -1 -1 -1 -1 -1 -1 -1 -1 -1 -1 -1 -1 -1 -1 -1 -1 -1 -1 -1 -1
 MicOpt= -1 -1 -1 -1 -1 -1 -1 -1 -1 -1 -1 -1 -1 -1 -1 -1 -1 -1 -1 -1
 NAtoms=     40 NQM=       40 NQMF=       0 NMMI=      0 NMMIF=      0
                NMic=       0 NMicF=      0.
                    Isotopes and Nuclear Properties:
 (Nuclear quadrupole moments (NQMom) in fm**2, nuclear magnetic moments (NMagM)
  in nuclear magnetons)

  Atom         1           2           3           4           5           6           7           8           9          10
 IAtWgt=          12          12          12           1           1           1           1           1           1           1
 AtmWgt=  12.0000000  12.0000000  12.0000000   1.0078250   1.0078250   1.0078250   1.0078250   1.0078250   1.0078250   1.0078250
 NucSpn=           0           0           0           1           1           1           1           1           1           1
 AtZEff=  -0.0000000  -0.0000000  -0.0000000  -0.0000000  -0.0000000  -0.0000000  -0.0000000  -0.0000000  -0.0000000  -0.0000000
 NQMom=    0.0000000   0.0000000   0.0000000   0.0000000   0.0000000   0.0000000   0.0000000   0.0000000   0.0000000   0.0000000
 NMagM=    0.0000000   0.0000000   0.0000000   2.7928460   2.7928460   2.7928460   2.7928460   2.7928460   2.7928460   2.7928460
 AtZNuc=   6.0000000   6.0000000   6.0000000   1.0000000   1.0000000   1.0000000   1.0000000   1.0000000   1.0000000   1.0000000

  Atom        11          12          13          14          15          16          17          18          19          20
 IAtWgt=          12          12          12           1           1           1           1           1           1           1
 AtmWgt=  12.0000000  12.0000000  12.0000000   1.0078250   1.0078250   1.0078250   1.0078250   1.0078250   1.0078250   1.0078250
 NucSpn=           0           0           0           1           1           1           1           1           1           1
 AtZEff=  -0.0000000  -0.0000000  -0.0000000  -0.0000000  -0.0000000  -0.0000000  -0.0000000  -0.0000000  -0.0000000  -0.0000000
 NQMom=    0.0000000   0.0000000   0.0000000   0.0000000   0.0000000   0.0000000   0.0000000   0.0000000   0.0000000   0.0000000
 NMagM=    0.0000000   0.0000000   0.0000000   2.7928460   2.7928460   2.7928460   2.7928460   2.7928460   2.7928460   2.7928460
 AtZNuc=   6.0000000   6.0000000   6.0000000   1.0000000   1.0000000   1.0000000   1.0000000   1.0000000   1.0000000   1.0000000

  Atom        21          22          23          24          25          26          27          28          29          30
 IAtWgt=          12          12          12           1           1           1           1           1           1           1
 AtmWgt=  12.0000000  12.0000000  12.0000000   1.0078250   1.0078250   1.0078250   1.0078250   1.0078250   1.0078250   1.0078250
 NucSpn=           0           0           0           1           1           1           1           1           1           1
 AtZEff=  -0.0000000  -0.0000000  -0.0000000  -0.0000000  -0.0000000  -0.0000000  -0.0000000  -0.0000000  -0.0000000  -0.0000000
 NQMom=    0.0000000   0.0000000   0.0000000   0.0000000   0.0000000   0.0000000   0.0000000   0.0000000   0.0000000   0.0000000
 NMagM=    0.0000000   0.0000000   0.0000000   2.7928460   2.7928460   2.7928460   2.7928460   2.7928460   2.7928460   2.7928460
 AtZNuc=   6.0000000   6.0000000   6.0000000   1.0000000   1.0000000   1.0000000   1.0000000   1.0000000   1.0000000   1.0000000

  Atom        31          32          33          34          35          36          37          38          39          40
 IAtWgt=          12          12          12           1           1           1           1           1           1           1
 AtmWgt=  12.0000000  12.0000000  12.0000000   1.0078250   1.0078250   1.0078250   1.0078250   1.0078250   1.0078250   1.0078250
 NucSpn=           0           0           0           1           1           1           1           1           1           1
 AtZEff=  -0.0000000  -0.0000000  -0.0000000  -0.0000000  -0.0000000  -0.0000000  -0.0000000  -0.0000000  -0.0000000  -0.0000000
 NQMom=    0.0000000   0.0000000   0.0000000   0.0000000   0.0000000   0.0000000   0.0000000   0.0000000   0.0000000   0.0000000
 NMagM=    0.0000000   0.0000000   0.0000000   2.7928460   2.7928460   2.7928460   2.7928460   2.7928460   2.7928460   2.7928460
 AtZNuc=   6.0000000   6.0000000   6.0000000   1.0000000   1.0000000   1.0000000   1.0000000   1.0000000   1.0000000   1.0000000
 Leave Link  101 at Wed May  5 16:44:02 2021, MaxMem=   524288000 cpu:               0.1 elap:               0.1
 (Enter /opt/gaussian/g16_legacy/l202.exe)
                          Input orientation:                          
 ---------------------------------------------------------------------
 Center     Atomic      Atomic             Coordinates (Angstroms)
 Number     Number       Type             X           Y           Z
 ---------------------------------------------------------------------
      1          6           0       -0.666000   -0.374000    0.000000
      2          6           0       -1.882000    0.553000    0.000000
      3          6           0       -3.207000   -0.210000    0.000000
      4          1           0       -0.713000   -1.030000   -0.880000
      5          1           0       -0.713000   -1.029000    0.881000
      6          1           0       -1.832000    1.207000   -0.880000
      7          1           0       -1.832000    1.207000    0.880000
      8          1           0       -3.283000   -0.850000    0.885000
      9          1           0       -3.283000   -0.850000   -0.885000
     10          1           0       -4.063000    0.472000    0.000000
     11          6           0        0.666000    0.374000    0.000000
     12          6           0        1.882000   -0.553000    0.000000
     13          6           0        3.207000    0.210000    0.000000
     14          1           0        0.713000    1.029000   -0.881000
     15          1           0        0.713000    1.030000    0.880000
     16          1           0        1.832000   -1.207000   -0.880000
     17          1           0        1.832000   -1.207000    0.880000
     18          1           0        3.283000    0.850000    0.885000
     19          1           0        3.283000    0.850000   -0.885000
     20          1           0        4.063000   -0.472000    0.000000
     21          6           0       -4.273618   -4.100374   -1.413165
     22          6           0       -5.644270   -3.609958   -1.880917
     23          6           0       -5.726468   -2.086072   -1.974763
     24          1           0       -4.048069   -3.658521   -0.432941
     25          1           0       -3.504269   -3.732737   -2.106230
     26          1           0       -6.410953   -3.979565   -1.187950
     27          1           0       -5.866666   -4.053181   -2.860054
     28          1           0       -4.982912   -1.702940   -2.681117
     29          1           0       -5.530291   -1.628906   -0.999512
     30          1           0       -6.714768   -1.757275   -2.310941
     31          6           0       -4.175838   -5.621690   -1.314359
     32          6           0       -2.805187   -6.112106   -0.846607
     33          6           0       -2.722989   -7.635992   -0.752761
     34          1           0       -4.945188   -5.989327   -0.621294
     35          1           0       -4.401388   -6.063543   -2.294583
     36          1           0       -2.582790   -5.668883    0.132530
     37          1           0       -2.038503   -5.742499   -1.539574
     38          1           0       -2.919165   -8.093159   -1.728012
     39          1           0       -3.466545   -8.019125   -0.046407
     40          1           0       -1.734688   -7.964789   -0.416583
 ---------------------------------------------------------------------
                    Distance matrix (angstroms):
                    1          2          3          4          5
     1  C    0.000000
     2  C    1.529047   0.000000
     3  C    2.546287   1.528985   0.000000
     4  H    1.098610   2.155655   2.768905   0.000000
     5  H    1.098815   2.155330   2.768927   1.761000   0.000000
     6  H    2.152561   1.097550   2.161692   2.501266   3.058264
     7  H    2.152561   1.097550   2.161692   3.058420   2.500372
     8  H    2.803300   2.171275   1.094806   3.122903   2.576229
     9  H    2.803300   2.171275   1.094806   2.576301   3.123411
    10  H    3.500761   2.182504   1.094468   3.775302   3.775137
    11  C    1.527654   2.554280   3.916782   2.155750   2.155507
    12  C    2.554280   3.923128   5.100546   2.781358   2.781504
    13  C    3.916782   5.100546   6.427736   4.204569   4.204484
    14  H    2.155507   2.781504   4.204484   2.504587   3.061615
    15  H    2.155750   2.781358   4.204569   3.061809   2.504587
    16  H    2.776381   4.203070   5.211519   2.551148   3.099973
    17  H    2.776381   4.203070   5.211519   3.099347   2.551217
    18  H    4.228002   5.248682   6.635279   4.755801   4.415730
    19  H    4.228002   5.248682   6.635279   4.416157   4.755777
    20  H    4.730015   6.032715   7.274720   4.888347   4.888413
    21  C    5.375668   5.419480   4.274309   4.731750   5.232068
    22  C    6.228358   5.918002   4.586703   5.654683   6.213449
    23  C    5.695544   5.064023   3.710398   5.239146   5.865803
    24  H    4.734333   4.755649   3.575910   4.269856   4.445617
    25  H    4.875766   5.043362   4.115124   4.074262   4.901522
    26  H    6.885914   6.516655   5.087844   6.423506   6.741888
    27  H    6.983066   6.728624   5.479395   6.294483   7.049924
    28  H    5.252637   4.679029   3.545578   4.682843   5.601341
    29  H    5.122025   4.366894   2.900000   4.855848   5.206007
    30  H    6.621291   5.833821   4.476488   6.212708   6.836673
    31  C    6.448624   6.716847   5.652661   5.767455   6.156594
    32  C    6.182129   6.781789   5.976040   5.496013   5.761930
    33  C    7.585142   8.266408   7.479724   6.906184   7.096589
    34  H    7.087267   7.250598   6.066953   6.524819   6.691274
    35  H    7.182558   7.442518   6.399659   6.398578   7.002511
    36  H    5.632711   6.262627   5.496054   5.102996   5.058146
    37  H    5.751072   6.482907   5.860394   4.939599   5.461979
    38  H    8.224852   8.877939   8.075461   7.448121   7.847066
    39  H    8.142060   8.717469   7.813575   7.558092   7.569937
    40  H    7.676960   8.529242   7.904302   7.024948   7.129708
                    6          7          8          9         10
     6  H    0.000000
     7  H    1.760000   0.000000
     8  H    3.074390   2.517275   0.000000
     9  H    2.517275   3.074390   1.770000   0.000000
    10  H    2.508383   2.508383   1.771810   1.771810   0.000000
    11  C    2.776381   2.776381   4.228002   4.228002   4.730015
    12  C    4.203070   4.203070   5.248682   5.248682   6.032715
    13  C    5.211519   5.211519   6.635279   6.635279   7.274720
    14  H    2.551217   3.099973   4.755777   4.415730   4.888413
    15  H    3.099347   2.551148   4.416157   4.755801   4.888347
    16  H    4.387743   4.727567   5.422721   5.127446   6.192291
    17  H    4.727567   4.387743   5.127446   5.422721   6.192291
    18  H    5.422721   5.127446   6.782504   7.009654   7.408767
    19  H    5.127446   5.422721   7.009654   6.782504   7.408767
    20  H    6.192291   6.192291   7.408767   7.408767   8.180649
    21  C    5.866343   6.276012   4.102172   3.438781   4.790407
    22  C    6.224012   6.734920   4.565442   3.766273   4.764519
    23  C    5.216293   5.844731   3.959375   2.947201   3.634632
    24  H    5.365083   5.505277   3.195323   2.945756   4.153175
    25  H    5.357343   6.009580   4.160119   3.138556   4.735842
    26  H    6.925468   7.221058   4.886245   4.435093   5.171126
    27  H    6.918717   7.611573   5.564272   4.564706   5.648928
    28  H    4.651883   5.574724   4.041584   2.615959   3.572813
    29  H    4.661974   5.025165   3.034534   2.381202   2.750595
    30  H    5.888628   6.542970   4.776423   3.825374   4.164371
    31  C    7.232790   7.545846   5.329481   4.873452   6.234848
    32  C    7.383598   7.582716   5.560263   5.283894   6.756426
    33  C    8.888676   9.036497   7.003254   6.810344   8.252382
    34  H    7.845125   7.983292   5.607537   5.407873   6.550802
    35  H    7.839872   8.339096   6.208186   5.515319   6.934907
    36  H    6.990470   6.957023   4.927285   4.974665   6.318151
    37  H    6.983782   7.361557   5.600346   5.090559   6.714825
    38  H    9.401809   9.719908   7.708668   7.301123   8.812283
    39  H    9.406806   9.415485   7.231705   7.220338   8.512175
    40  H    9.184004   9.263493   7.396730   7.296363   8.762077
                   11         12         13         14         15
    11  C    0.000000
    12  C    1.529047   0.000000
    13  C    2.546287   1.528985   0.000000
    14  H    1.098815   2.155330   2.768927   0.000000
    15  H    1.098610   2.155655   2.768905   1.761000   0.000000
    16  H    2.152561   1.097550   2.161692   2.500372   3.058420
    17  H    2.152561   1.097550   2.161692   3.058264   2.501266
    18  H    2.803300   2.171275   1.094806   3.123411   2.576301
    19  H    2.803300   2.171275   1.094806   2.576229   3.122903
    20  H    3.500761   2.182504   1.094468   3.775137   3.775302
    21  C    6.812994   7.243793   8.748486   7.173565   7.513035
    22  C    7.696056   8.338320   9.822164   7.933136   8.340669
    23  C    7.128484   8.008669   9.432841   7.236487   7.702358
    24  H    6.218610   6.708011   8.233403   6.696371   6.809833
    25  H    6.220341   6.599911   8.063654   6.477707   7.027559
    26  H    8.393332   9.051278  10.557874   8.713819   8.951138
    27  H    8.393781   8.970674  10.425260   8.546182   9.116948
    28  H    6.588799   7.459073   8.827366   6.568663   7.252167
    29  H    6.588223   7.556365   8.984478   6.786545   7.041380
    30  H    8.022376   8.983048  10.375553   8.061005   8.551184
    31  C    7.817879   8.007282   9.499602   8.265604   8.541717
    32  C    7.405096   7.320528   8.765396   7.960793   8.146686
    33  C    8.729941   8.481825   9.863620   9.322261   9.464214
    34  H    8.506666   8.749294  10.260401   9.018839   9.140018
    35  H    8.507966   8.666727  10.124723   8.857728   9.303402
    36  H    6.862116   6.791478   8.252303   7.533333   7.503064
    37  H    6.862666   6.683677   8.081945   7.338780   7.700120
    38  H    9.355865   9.104461  10.462236   9.855143  10.160038
    39  H    9.355460   9.184340  10.595134  10.001685  10.010669
    40  H    8.687476   8.257638   9.561433   9.332476   9.411617
                   16         17         18         19         20
    16  H    0.000000
    17  H    1.760000   0.000000
    18  H    3.074390   2.517275   0.000000
    19  H    2.517275   3.074390   1.770000   0.000000
    20  H    2.508383   2.508383   1.771810   1.771810   0.000000
    21  C    6.777496   7.135040   9.321493   9.049179   9.201159
    22  C    7.916480   8.324151  10.355562  10.028919  10.373800
    23  C    7.687764   8.127292   9.897943   9.538271  10.116254
    24  H    6.386316   6.504535   8.706796   8.618335   8.725296
    25  H    6.029822   6.616093   8.718713   8.280091   8.504832
    26  H    8.702197   8.939229  11.026992  10.834630  11.109362
    27  H    8.443389   9.019879  11.035534  10.566854  10.936317
    28  H    7.066329   7.705228   9.357350   8.835657   9.514837
    29  H    7.375338   7.610118   9.347217   9.155992   9.714355
    30  H    8.683181   9.139592  10.815142  10.430079  11.097417
    31  C    7.468084   7.771668  10.117026   9.884401   9.804351
    32  C    6.750162   6.967406   9.409325   9.248698   8.927459
    33  C    7.880105   8.046476  10.524553  10.397185   9.896417
    34  H    8.298666   8.429402  10.805017  10.702757  10.581794
    35  H    8.027589   8.515815  10.814649  10.432345  10.400785
    36  H    6.357986   6.321193   8.801678   8.828289   8.437516
    37  H    5.998882   6.434740   8.812377   8.497523   8.208336
    38  H    8.409036   8.763246  11.192621  10.915934  10.479443
    39  H    8.670323   8.679738  11.184152  11.176805  10.660924
    40  H    7.655307   7.750490  10.226036  10.153675   9.483070
                   21         22         23         24         25
    21  C    0.000000
    22  C    1.529048   0.000000
    23  C    2.546287   1.528984   0.000000
    24  H    1.098611   2.155655   2.768905   0.000000
    25  H    1.098815   2.155329   2.768927   1.761000   0.000000
    26  H    2.152561   1.097550   2.161692   2.501265   3.058263
    27  H    2.152561   1.097550   2.161692   3.058419   2.500371
    28  H    2.803300   2.171274   1.094807   3.122903   2.576229
    29  H    2.803300   2.171275   1.094806   2.576300   3.123411
    30  H    3.500761   2.182503   1.094468   3.775302   3.775137
    31  C    1.527654   2.554280   3.916782   2.155749   2.155506
    32  C    2.554279   3.923128   5.100546   2.781358   2.781504
    33  C    3.916782   5.100546   6.427736   4.204569   4.204483
    34  H    2.155507   2.781504   4.204483   2.504587   3.061614
    35  H    2.155749   2.781358   4.204569   3.061809   2.504587
    36  H    2.776381   4.203070   5.211519   2.551148   3.099973
    37  H    2.776381   4.203071   5.211519   3.099348   2.551218
    38  H    4.228002   5.248683   6.635279   4.755801   4.415730
    39  H    4.228002   5.248682   6.635279   4.416157   4.755777
    40  H    4.730015   6.032716   7.274720   4.888348   4.888414
                   26         27         28         29         30
    26  H    0.000000
    27  H    1.760000   0.000000
    28  H    3.074389   2.517275   0.000000
    29  H    2.517275   3.074390   1.770000   0.000000
    30  H    2.508383   2.508383   1.771809   1.771810   0.000000
    31  C    2.776381   2.776381   4.228002   4.228001   4.730015
    32  C    4.203070   4.203070   5.248682   5.248681   6.032715
    33  C    5.211519   5.211518   6.635278   6.635278   7.274719
    34  H    2.551217   3.099972   4.755776   4.415729   4.888413
    35  H    3.099347   2.551147   4.416156   4.755800   4.888347
    36  H    4.387744   4.727567   5.422721   5.127445   6.192291
    37  H    4.727568   4.387744   5.127446   5.422721   6.192291
    38  H    5.422721   5.127446   6.782504   7.009655   7.408767
    39  H    5.127446   5.422721   7.009655   6.782504   7.408767
    40  H    6.192291   6.192291   7.408767   7.408767   8.180649
                   31         32         33         34         35
    31  C    0.000000
    32  C    1.529047   0.000000
    33  C    2.546287   1.528984   0.000000
    34  H    1.098815   2.155329   2.768927   0.000000
    35  H    1.098611   2.155655   2.768905   1.761000   0.000000
    36  H    2.152561   1.097550   2.161692   2.500372   3.058420
    37  H    2.152561   1.097550   2.161692   3.058264   2.501266
    38  H    2.803301   2.171275   1.094806   3.123412   2.576301
    39  H    2.803300   2.171275   1.094807   2.576230   3.122904
    40  H    3.500761   2.182504   1.094469   3.775138   3.775303
                   36         37         38         39         40
    36  H    0.000000
    37  H    1.760000   0.000000
    38  H    3.074391   2.517276   0.000000
    39  H    2.517276   3.074391   1.770000   0.000000
    40  H    2.508383   2.508383   1.771810   1.771810   0.000000
 Stoichiometry    C12H28
 Framework group  C1[X(C12H28)]
 Deg. of freedom   114
 Full point group                 C1      NOp   1
 Largest Abelian subgroup         C1      NOp   1
 Largest concise Abelian subgroup C1      NOp   1
                         Standard orientation:                         
 ---------------------------------------------------------------------
 Center     Atomic      Atomic             Coordinates (Angstroms)
 Number     Number       Type             X           Y           Z
 ---------------------------------------------------------------------
      1          6           0       -2.556256   -0.420366    0.273932
      2          6           0       -2.347008   -1.923754    0.458392
      3          6           0       -0.891897   -2.285785    0.757356
      4          1           0       -1.913183   -0.064574   -0.542656
      5          1           0       -2.226432    0.102838    1.182154
      6          1           0       -2.678416   -2.444080   -0.449377
      7          1           0       -2.990795   -2.276043    1.274509
      8          1           0       -0.552874   -1.792937    1.674289
      9          1           0       -0.238720   -1.961928   -0.059392
     10          1           0       -0.764972   -3.365280    0.885580
     11          6           0       -4.005883   -0.042726   -0.025561
     12          6           0       -4.215131    1.460662   -0.210021
     13          6           0       -5.670242    1.822693   -0.508985
     14          1           0       -4.335707   -0.565930   -0.933783
     15          1           0       -4.648955   -0.398518    0.791027
     16          1           0       -3.571344    1.812952   -1.026138
     17          1           0       -3.883723    1.980988    0.697748
     18          1           0       -6.323419    1.498836    0.307763
     19          1           0       -6.009265    1.329845   -1.425918
     20          1           0       -5.797166    2.902188   -0.637209
     21          6           0        2.797615   -0.354246   -0.205128
     22          6           0        3.500236   -1.694428   -0.424725
     23          6           0        2.519767   -2.856673   -0.584914
     24          1           0        2.160034   -0.423561    0.686854
     25          1           0        2.127906   -0.155946   -1.053397
     26          1           0        4.169461   -1.889486    0.423040
     27          1           0        4.136366   -1.621855   -1.316177
     28          1           0        1.859739   -2.688531   -1.442056
     29          1           0        1.893022   -2.957682    0.307044
     30          1           0        3.043367   -3.805040   -0.740812
     31          6           0        3.764523    0.817338   -0.043243
     32          6           0        3.061903    2.157520    0.176354
     33          6           0        4.042372    3.319764    0.336543
     34          1           0        4.434233    0.619038    0.805026
     35          1           0        4.402105    0.886652   -0.935225
     36          1           0        2.425772    2.084947    1.067806
     37          1           0        2.392678    2.352578   -0.671411
     38          1           0        4.669117    3.420775   -0.555415
     39          1           0        4.702400    3.151623    1.193685
     40          1           0        3.518772    4.268132    0.492441
 ---------------------------------------------------------------------
 Rotational constants (GHZ):           0.7325375           0.2338023           0.1832302
 Leave Link  202 at Wed May  5 16:44:02 2021, MaxMem=   524288000 cpu:               0.0 elap:               0.1
 (Enter /opt/gaussian/g16_legacy/l301.exe)
 Standard basis: 6-31G(d) (6D, 7F)
 Ernie: Thresh=  0.10000D-02 Tol=  0.10000D-05 Strict=F.
 There are   236 symmetry adapted cartesian basis functions of A   symmetry.
 There are   236 symmetry adapted basis functions of A   symmetry.
   236 basis functions,   448 primitive gaussians,   236 cartesian basis functions
    50 alpha electrons       50 beta electrons
       nuclear repulsion energy       684.5581139495 Hartrees.
 IExCor=    0 DFT=F Ex=HF Corr=None ExCW=0 ScaHFX=  1.000000
 ScaDFX=  1.000000  1.000000  1.000000  1.000000 ScalE2=  1.000000  1.000000
 IRadAn=      5 IRanWt=     -1 IRanGd=            0 ICorTp=0 IEmpDi=  4
 NAtoms=   40 NActive=   40 NUniq=   40 SFac= 1.00D+00 NAtFMM=   60 NAOKFM=F Big=F
 Integral buffers will be    131072 words long.
 Raffenetti 1 integral format.
 Two-electron integral symmetry is turned on.
 Leave Link  301 at Wed May  5 16:44:02 2021, MaxMem=   524288000 cpu:               0.2 elap:               0.2
 (Enter /opt/gaussian/g16_legacy/l302.exe)
 NPDir=0 NMtPBC=     1 NCelOv=     1 NCel=       1 NClECP=     1 NCelD=      1
         NCelK=      1 NCelE2=     1 NClLst=     1 CellRange=     0.0.
 One-electron integrals computed using PRISM.
 One-electron integral symmetry used in STVInt
 NBasis=   236 RedAO= T EigKep=  3.20D-03  NBF=   236
 NBsUse=   236 1.00D-06 EigRej= -1.00D+00 NBFU=   236
 Leave Link  302 at Wed May  5 16:44:03 2021, MaxMem=   524288000 cpu:               0.5 elap:               0.4
 (Enter /opt/gaussian/g16_legacy/l303.exe)
 DipDrv:  MaxL=1.
 Leave Link  303 at Wed May  5 16:44:03 2021, MaxMem=   524288000 cpu:               0.1 elap:               0.1
 (Enter /opt/gaussian/g16_legacy/l401.exe)
 ExpMin= 1.61D-01 ExpMax= 3.05D+03 ExpMxC= 4.57D+02 IAcc=3 IRadAn=         5 AccDes= 0.00D+00
 Harris functional with IExCor=  205 and IRadAn=       5 diagonalized for initial guess.
 HarFok:  IExCor=  205 AccDes= 0.00D+00 IRadAn=         5 IDoV= 1 UseB2=F ITyADJ=14
 ICtDFT=  3500011 ScaDFX=  1.000000  1.000000  1.000000  1.000000
 FoFCou: FMM=F IPFlag=           0 FMFlag=      100000 FMFlg1=           0
         NFxFlg=           0 DoJE=T BraDBF=F KetDBF=T FulRan=T
         wScrn=  0.000000 ICntrl=       500 IOpCl=  0 I1Cent=   200000004 NGrid=           0
         NMat0=    1 NMatS0=      1 NMatT0=    0 NMatD0=    1 NMtDS0=    0 NMtDT0=    0
 Petite list used in FoFCou.
 Harris En= -472.099042430250    
 JPrj=0 DoOrth=F DoCkMO=F.
 Leave Link  401 at Wed May  5 16:44:08 2021, MaxMem=   524288000 cpu:               9.5 elap:               4.9
 (Enter /opt/gaussian/g16_legacy/l502.exe)
 Keep R1 ints in memory in canonical form, NReq=397720540.
 FoFCou: FMM=F IPFlag=           0 FMFlag=           0 FMFlg1=           0
         NFxFlg=           0 DoJE=F BraDBF=F KetDBF=F FulRan=T
         wScrn=  0.000000 ICntrl=       600 IOpCl=  0 I1Cent=           0 NGrid=           0
         NMat0=    1 NMatS0=  27966 NMatT0=    0 NMatD0=    1 NMtDS0=    0 NMtDT0=    0
 Symmetry not used in FoFCou.
 Two-electron integral symmetry not used.
 Closed shell SCF:
 Using DIIS extrapolation, IDIIS=  1040.
 NGot=   524288000 LenX=   133109463 LenY=   133053326
 Requested convergence on RMS density matrix=1.00D-08 within 128 cycles.
 Requested convergence on MAX density matrix=1.00D-06.
 Requested convergence on             energy=1.00D-06.
 No special actions if energy rises.

 Cycle   1  Pass 1  IDiag  1:
 E= -469.871675705425    
 DIIS: error= 5.26D-02 at cycle   1 NSaved=   1.
 NSaved= 1 IEnMin= 1 EnMin= -469.871675705425     IErMin= 1 ErrMin= 5.26D-02
 ErrMax= 5.26D-02  0.00D+00 EMaxC= 1.00D-01 BMatC= 1.07D+00 BMatP= 1.07D+00
 IDIUse=3 WtCom= 4.74D-01 WtEn= 5.26D-01
 Coeff-Com:  0.100D+01
 Coeff-En:   0.100D+01
 Coeff:      0.100D+01
 Gap=     0.638 Goal=   None    Shift=    0.000
 GapD=    0.638 DampG=2.000 DampE=0.500 DampFc=1.0000 IDamp=-1.
 RMSDP=4.72D-03 MaxDP=1.19D-01              OVMax= 1.33D-01

 Cycle   2  Pass 1  IDiag  1:
 E= -470.595508113427     Delta-E=       -0.723832408003 Rises=F Damp=F
 DIIS: error= 2.03D-02 at cycle   2 NSaved=   2.
 NSaved= 2 IEnMin= 2 EnMin= -470.595508113427     IErMin= 2 ErrMin= 2.03D-02
 ErrMax= 2.03D-02  0.00D+00 EMaxC= 1.00D-01 BMatC= 1.46D-01 BMatP= 1.07D+00
 IDIUse=3 WtCom= 7.97D-01 WtEn= 2.03D-01
 Coeff-Com:  0.219D+00 0.781D+00
 Coeff-En:   0.000D+00 0.100D+01
 Coeff:      0.174D+00 0.826D+00
 Gap=     0.687 Goal=   None    Shift=    0.000
 RMSDP=1.71D-03 MaxDP=3.33D-02 DE=-7.24D-01 OVMax= 4.73D-02

 Cycle   3  Pass 1  IDiag  1:
 E= -470.726333202039     Delta-E=       -0.130825088611 Rises=F Damp=F
 DIIS: error= 4.28D-03 at cycle   3 NSaved=   3.
 NSaved= 3 IEnMin= 3 EnMin= -470.726333202039     IErMin= 3 ErrMin= 4.28D-03
 ErrMax= 4.28D-03  0.00D+00 EMaxC= 1.00D-01 BMatC= 4.87D-03 BMatP= 1.46D-01
 IDIUse=3 WtCom= 9.57D-01 WtEn= 4.28D-02
 Coeff-Com: -0.262D-01 0.106D+00 0.920D+00
 Coeff-En:   0.000D+00 0.000D+00 0.100D+01
 Coeff:     -0.251D-01 0.101D+00 0.924D+00
 Gap=     0.657 Goal=   None    Shift=    0.000
 RMSDP=2.81D-04 MaxDP=7.48D-03 DE=-1.31D-01 OVMax= 9.61D-03

 Cycle   4  Pass 1  IDiag  1:
 E= -470.731868267374     Delta-E=       -0.005535065335 Rises=F Damp=F
 DIIS: error= 5.00D-04 at cycle   4 NSaved=   4.
 NSaved= 4 IEnMin= 4 EnMin= -470.731868267374     IErMin= 4 ErrMin= 5.00D-04
 ErrMax= 5.00D-04  0.00D+00 EMaxC= 1.00D-01 BMatC= 6.48D-05 BMatP= 4.87D-03
 IDIUse=3 WtCom= 9.95D-01 WtEn= 5.00D-03
 Coeff-Com:  0.122D-02-0.222D-01-0.880D-01 0.111D+01
 Coeff-En:   0.000D+00 0.000D+00 0.000D+00 0.100D+01
 Coeff:      0.121D-02-0.221D-01-0.876D-01 0.111D+01
 Gap=     0.658 Goal=   None    Shift=    0.000
 RMSDP=6.12D-05 MaxDP=1.17D-03 DE=-5.54D-03 OVMax= 1.85D-03

 Cycle   5  Pass 1  IDiag  1:
 E= -470.731976557486     Delta-E=       -0.000108290113 Rises=F Damp=F
 DIIS: error= 1.48D-04 at cycle   5 NSaved=   5.
 NSaved= 5 IEnMin= 5 EnMin= -470.731976557486     IErMin= 5 ErrMin= 1.48D-04
 ErrMax= 1.48D-04  0.00D+00 EMaxC= 1.00D-01 BMatC= 6.83D-06 BMatP= 6.48D-05
 IDIUse=3 WtCom= 9.99D-01 WtEn= 1.48D-03
 Coeff-Com:  0.222D-02-0.125D-01-0.846D-01 0.190D+00 0.904D+00
 Coeff-En:   0.000D+00 0.000D+00 0.000D+00 0.000D+00 0.100D+01
 Coeff:      0.222D-02-0.125D-01-0.845D-01 0.190D+00 0.905D+00
 Gap=     0.658 Goal=   None    Shift=    0.000
 RMSDP=1.63D-05 MaxDP=3.77D-04 DE=-1.08D-04 OVMax= 4.92D-04

 Cycle   6  Pass 1  IDiag  1:
 E= -470.731986121159     Delta-E=       -0.000009563673 Rises=F Damp=F
 DIIS: error= 2.40D-05 at cycle   6 NSaved=   6.
 NSaved= 6 IEnMin= 6 EnMin= -470.731986121159     IErMin= 6 ErrMin= 2.40D-05
 ErrMax= 2.40D-05  0.00D+00 EMaxC= 1.00D-01 BMatC= 1.46D-07 BMatP= 6.83D-06
 IDIUse=1 WtCom= 1.00D+00 WtEn= 0.00D+00
 Coeff-Com:  0.141D-03-0.296D-03-0.334D-02-0.316D-01 0.608D-01 0.974D+00
 Coeff:      0.141D-03-0.296D-03-0.334D-02-0.316D-01 0.608D-01 0.974D+00
 Gap=     0.658 Goal=   None    Shift=    0.000
 RMSDP=3.44D-06 MaxDP=7.31D-05 DE=-9.56D-06 OVMax= 1.03D-04

 Cycle   7  Pass 1  IDiag  1:
 E= -470.731986371078     Delta-E=       -0.000000249918 Rises=F Damp=F
 DIIS: error= 4.52D-06 at cycle   7 NSaved=   7.
 NSaved= 7 IEnMin= 7 EnMin= -470.731986371078     IErMin= 7 ErrMin= 4.52D-06
 ErrMax= 4.52D-06  0.00D+00 EMaxC= 1.00D-01 BMatC= 5.84D-09 BMatP= 1.46D-07
 IDIUse=1 WtCom= 1.00D+00 WtEn= 0.00D+00
 Coeff-Com: -0.564D-04 0.357D-03 0.248D-02-0.742D-02-0.253D-01 0.283D-01
 Coeff-Com:  0.100D+01
 Coeff:     -0.564D-04 0.357D-03 0.248D-02-0.742D-02-0.253D-01 0.283D-01
 Coeff:      0.100D+01
 Gap=     0.658 Goal=   None    Shift=    0.000
 RMSDP=7.45D-07 MaxDP=1.49D-05 DE=-2.50D-07 OVMax= 2.29D-05

 Cycle   8  Pass 1  IDiag  1:
 E= -470.731986381272     Delta-E=       -0.000000010194 Rises=F Damp=F
 DIIS: error= 2.08D-06 at cycle   8 NSaved=   8.
 NSaved= 8 IEnMin= 8 EnMin= -470.731986381272     IErMin= 8 ErrMin= 2.08D-06
 ErrMax= 2.08D-06  0.00D+00 EMaxC= 1.00D-01 BMatC= 6.36D-10 BMatP= 5.84D-09
 IDIUse=1 WtCom= 1.00D+00 WtEn= 0.00D+00
 Coeff-Com: -0.163D-04 0.642D-04 0.552D-03 0.135D-02-0.723D-02-0.676D-01
 Coeff-Com:  0.134D+00 0.938D+00
 Coeff:     -0.163D-04 0.642D-04 0.552D-03 0.135D-02-0.723D-02-0.676D-01
 Coeff:      0.134D+00 0.938D+00
 Gap=     0.658 Goal=   None    Shift=    0.000
 RMSDP=2.10D-07 MaxDP=4.36D-06 DE=-1.02D-08 OVMax= 7.61D-06

 Cycle   9  Pass 1  IDiag  1:
 E= -470.731986382358     Delta-E=       -0.000000001086 Rises=F Damp=F
 DIIS: error= 4.13D-07 at cycle   9 NSaved=   9.
 NSaved= 9 IEnMin= 9 EnMin= -470.731986382358     IErMin= 9 ErrMin= 4.13D-07
 ErrMax= 4.13D-07  0.00D+00 EMaxC= 1.00D-01 BMatC= 3.89D-11 BMatP= 6.36D-10
 IDIUse=1 WtCom= 1.00D+00 WtEn= 0.00D+00
 Coeff-Com:  0.525D-05-0.318D-04-0.228D-03 0.472D-03 0.259D-02 0.290D-02
 Coeff-Com: -0.873D-01-0.700D-01 0.115D+01
 Coeff:      0.525D-05-0.318D-04-0.228D-03 0.472D-03 0.259D-02 0.290D-02
 Coeff:     -0.873D-01-0.700D-01 0.115D+01
 Gap=     0.658 Goal=   None    Shift=    0.000
 RMSDP=7.38D-08 MaxDP=1.35D-06 DE=-1.09D-09 OVMax= 2.27D-06

 Cycle  10  Pass 1  IDiag  1:
 E= -470.731986382447     Delta-E=       -0.000000000088 Rises=F Damp=F
 DIIS: error= 8.28D-08 at cycle  10 NSaved=  10.
 NSaved=10 IEnMin=10 EnMin= -470.731986382447     IErMin=10 ErrMin= 8.28D-08
 ErrMax= 8.28D-08  0.00D+00 EMaxC= 1.00D-01 BMatC= 1.49D-12 BMatP= 3.89D-11
 IDIUse=1 WtCom= 1.00D+00 WtEn= 0.00D+00
 Coeff-Com:  0.323D-06-0.392D-06-0.887D-05-0.132D-03 0.167D-03 0.379D-02
 Coeff-Com:  0.865D-03-0.502D-01-0.106D+00 0.115D+01
 Coeff:      0.323D-06-0.392D-06-0.887D-05-0.132D-03 0.167D-03 0.379D-02
 Coeff:      0.865D-03-0.502D-01-0.106D+00 0.115D+01
 Gap=     0.658 Goal=   None    Shift=    0.000
 RMSDP=1.44D-08 MaxDP=3.23D-07 DE=-8.84D-11 OVMax= 5.16D-07

 Cycle  11  Pass 1  IDiag  1:
 E= -470.731986382456     Delta-E=       -0.000000000010 Rises=F Damp=F
 DIIS: error= 8.89D-09 at cycle  11 NSaved=  11.
 NSaved=11 IEnMin=11 EnMin= -470.731986382456     IErMin=11 ErrMin= 8.89D-09
 ErrMax= 8.89D-09  0.00D+00 EMaxC= 1.00D-01 BMatC= 3.75D-14 BMatP= 1.49D-12
 IDIUse=1 WtCom= 1.00D+00 WtEn= 0.00D+00
 Coeff-Com: -0.188D-06 0.934D-06 0.727D-05 0.165D-04-0.102D-03-0.867D-03
 Coeff-Com:  0.197D-02 0.121D-01-0.289D-02-0.259D+00 0.125D+01
 Coeff:     -0.188D-06 0.934D-06 0.727D-05 0.165D-04-0.102D-03-0.867D-03
 Coeff:      0.197D-02 0.121D-01-0.289D-02-0.259D+00 0.125D+01
 Gap=     0.658 Goal=   None    Shift=    0.000
 RMSDP=1.98D-09 MaxDP=4.60D-08 DE=-9.55D-12 OVMax= 6.78D-08

 SCF Done:  E(RHF) =  -470.731986382     A.U. after   11 cycles
            NFock= 11  Conv=0.20D-08     -V/T= 2.0011
 KE= 4.702343555441D+02 PE=-2.462300494530D+03 EE= 8.367760386542D+02
 Leave Link  502 at Wed May  5 16:44:24 2021, MaxMem=   524288000 cpu:              24.2 elap:              16.5
 (Enter /opt/gaussian/g16_legacy/l801.exe)
 ExpMin= 1.61D-01 ExpMax= 3.05D+03 ExpMxC= 4.57D+02 IAcc=3 IRadAn=         5 AccDes= 0.00D+00
 HarFok:  IExCor=  205 AccDes= 0.00D+00 IRadAn=         5 IDoV=-2 UseB2=F ITyADJ=14
 ICtDFT= 12500011 ScaDFX=  1.000000  1.000000  1.000000  1.000000
 Largest valence mixing into a core orbital is  1.98D-04
 Largest core mixing into a valence orbital is  3.30D-05
 Range of M.O.s used for correlation:    13   236
 NBasis=   236 NAE=    50 NBE=    50 NFC=    12 NFV=     0
 NROrb=    224 NOA=    38 NOB=    38 NVA=   186 NVB=   186
 Leave Link  801 at Wed May  5 16:44:25 2021, MaxMem=   524288000 cpu:               1.2 elap:               0.6
 (Enter /opt/gaussian/g16_legacy/l906.exe)
 FulOut=F Deriv=F AODrv=F NAtomX=    40
   MMem=         154  MDisk=          38 MDiskD=          38
  W3Min=     1668048 MinDsk=     1838182 NBas6D=         236
 NBas2D=       28290    NTT=       27966    LW2=     2000000
    MDV=   523948660 MDiskM=       30717 NBas2p=       19420
 Fully direct method using O(OVN) memory.
 IMap=   1   2   3   4   5   6   7   8   9  10  11  12  13  14  15  16  17  18  19  20
 IMap=  21  22  23  24  25  26  27  28  29  30  31  32  33  34  35  36  37  38
 JobTyp=1 Pass  1:  I=   1 to  38 NPSUse=  2 ParTrn=T ParDer=T DoDerP=F.
 Spin components of T(2) and E(2):
     alpha-alpha T2 =       0.6285356320D-01 E2=     -0.1843829323D+00
     alpha-beta  T2 =       0.4043834090D+00 E2=     -0.1214786301D+01
     beta-beta   T2 =       0.6285356320D-01 E2=     -0.1843829323D+00
 The integrals were generated   1 times.
 ANorm=    0.1236968284D+01
 E2 =    -0.1583552166D+01 EUMP2 =    -0.47231553854810D+03
 Leave Link  906 at Wed May  5 16:44:59 2021, MaxMem=   524288000 cpu:              68.2 elap:              34.3
 (Enter /opt/gaussian/g16_legacy/l601.exe)
 Copying SCF densities to generalized density rwf, IOpCl= 0 IROHF=0.

 **********************************************************************

            Population analysis using the SCF density.

 **********************************************************************

 Orbital symmetries:
       Occupied  (A) (A) (A) (A) (A) (A) (A) (A) (A) (A) (A) (A)
                 (A) (A) (A) (A) (A) (A) (A) (A) (A) (A) (A) (A)
                 (A) (A) (A) (A) (A) (A) (A) (A) (A) (A) (A) (A)
                 (A) (A) (A) (A) (A) (A) (A) (A) (A) (A) (A) (A)
                 (A) (A)
       Virtual   (A) (A) (A) (A) (A) (A) (A) (A) (A) (A) (A) (A)
                 (A) (A) (A) (A) (A) (A) (A) (A) (A) (A) (A) (A)
                 (A) (A) (A) (A) (A) (A) (A) (A) (A) (A) (A) (A)
                 (A) (A) (A) (A) (A) (A) (A) (A) (A) (A) (A) (A)
                 (A) (A) (A) (A) (A) (A) (A) (A) (A) (A) (A) (A)
                 (A) (A) (A) (A) (A) (A) (A) (A) (A) (A) (A) (A)
                 (A) (A) (A) (A) (A) (A) (A) (A) (A) (A) (A) (A)
                 (A) (A) (A) (A) (A) (A) (A) (A) (A) (A) (A) (A)
                 (A) (A) (A) (A) (A) (A) (A) (A) (A) (A) (A) (A)
                 (A) (A) (A) (A) (A) (A) (A) (A) (A) (A) (A) (A)
                 (A) (A) (A) (A) (A) (A) (A) (A) (A) (A) (A) (A)
                 (A) (A) (A) (A) (A) (A) (A) (A) (A) (A) (A) (A)
                 (A) (A) (A) (A) (A) (A) (A) (A) (A) (A) (A) (A)
                 (A) (A) (A) (A) (A) (A) (A) (A) (A) (A) (A) (A)
                 (A) (A) (A) (A) (A) (A) (A) (A) (A) (A) (A) (A)
                 (A) (A) (A) (A) (A) (A)
 The electronic state is 1-A.
 Alpha  occ. eigenvalues --  -11.21583 -11.21581 -11.21544 -11.21534 -11.21373
 Alpha  occ. eigenvalues --  -11.21373 -11.21313 -11.21312 -11.21058 -11.21057
 Alpha  occ. eigenvalues --  -11.20940 -11.20926  -1.08414  -1.08378  -1.03544
 Alpha  occ. eigenvalues --   -1.03439  -0.96024  -0.95864  -0.87084  -0.86850
 Alpha  occ. eigenvalues --   -0.79729  -0.79411  -0.78281  -0.78124  -0.65031
 Alpha  occ. eigenvalues --   -0.65025  -0.60915  -0.60884  -0.59330  -0.59312
 Alpha  occ. eigenvalues --   -0.57642  -0.57489  -0.55271  -0.55195  -0.52801
 Alpha  occ. eigenvalues --   -0.52640  -0.52425  -0.52170  -0.49927  -0.49837
 Alpha  occ. eigenvalues --   -0.48110  -0.47644  -0.46590  -0.46569  -0.45914
 Alpha  occ. eigenvalues --   -0.45731  -0.45630  -0.45413  -0.43744  -0.43726
 Alpha virt. eigenvalues --    0.22052   0.23076   0.23593   0.24830   0.25542
 Alpha virt. eigenvalues --    0.26622   0.27109   0.27427   0.28083   0.29466
 Alpha virt. eigenvalues --    0.29589   0.31384   0.31651   0.31839   0.32362
 Alpha virt. eigenvalues --    0.32551   0.33440   0.33871   0.34137   0.34577
 Alpha virt. eigenvalues --    0.34668   0.34764   0.35734   0.36275   0.36449
 Alpha virt. eigenvalues --    0.36483   0.37207   0.37486   0.39902   0.40083
 Alpha virt. eigenvalues --    0.40751   0.41742   0.45208   0.45642   0.46307
 Alpha virt. eigenvalues --    0.47356   0.48013   0.49599   0.68472   0.68842
 Alpha virt. eigenvalues --    0.70032   0.71215   0.71661   0.73365   0.75114
 Alpha virt. eigenvalues --    0.75338   0.76356   0.76670   0.77909   0.78103
 Alpha virt. eigenvalues --    0.80331   0.82134   0.83539   0.85689   0.86879
 Alpha virt. eigenvalues --    0.87200   0.88150   0.91233   0.95677   0.96036
 Alpha virt. eigenvalues --    0.96600   0.97172   0.98453   0.99897   1.01736
 Alpha virt. eigenvalues --    1.01871   1.05303   1.06071   1.07046   1.08901
 Alpha virt. eigenvalues --    1.10423   1.11143   1.11550   1.12907   1.15556
 Alpha virt. eigenvalues --    1.16033   1.16539   1.17207   1.17348   1.18059
 Alpha virt. eigenvalues --    1.18673   1.18958   1.19655   1.20330   1.20598
 Alpha virt. eigenvalues --    1.20768   1.21047   1.21084   1.21407   1.21778
 Alpha virt. eigenvalues --    1.22188   1.22494   1.22978   1.23443   1.23822
 Alpha virt. eigenvalues --    1.24565   1.25158   1.26337   1.26621   1.28813
 Alpha virt. eigenvalues --    1.33478   1.34347   1.40338   1.40931   1.55290
 Alpha virt. eigenvalues --    1.56381   1.65625   1.66602   1.67352   1.67428
 Alpha virt. eigenvalues --    1.70756   1.71618   1.72882   1.73813   1.79503
 Alpha virt. eigenvalues --    1.79700   1.81311   1.82797   1.92789   1.93006
 Alpha virt. eigenvalues --    2.05131   2.05363   2.13254   2.13400   2.14837
 Alpha virt. eigenvalues --    2.15250   2.17863   2.17893   2.22523   2.22553
 Alpha virt. eigenvalues --    2.25504   2.25801   2.25811   2.26210   2.27748
 Alpha virt. eigenvalues --    2.28741   2.32792   2.33664   2.33961   2.34007
 Alpha virt. eigenvalues --    2.36185   2.36652   2.39711   2.40470   2.43086
 Alpha virt. eigenvalues --    2.43172   2.56820   2.56827   2.56967   2.57835
 Alpha virt. eigenvalues --    2.59608   2.59805   2.66752   2.67497   2.67725
 Alpha virt. eigenvalues --    2.67750   2.67906   2.68523   2.77010   2.77060
 Alpha virt. eigenvalues --    2.77600   2.77738   2.80172   2.80496   2.91424
 Alpha virt. eigenvalues --    2.91929   2.95035   2.95321   2.98835   3.00026
 Alpha virt. eigenvalues --    3.13820   3.14552   3.18834   3.18935   4.55418
 Alpha virt. eigenvalues --    4.55905   4.62655   4.63010   4.72058   4.72689
 Alpha virt. eigenvalues --    4.79741   4.80386   4.87812   4.88087   4.99736
 Alpha virt. eigenvalues --    4.99902
          Condensed to atoms (all electrons):
               1          2          3          4          5          6
     1  C    5.083755   0.352127  -0.057029   0.396003   0.396082  -0.043689
     2  C    0.352127   5.062025   0.339447  -0.041729  -0.041919   0.398990
     3  C   -0.057029   0.339447   5.104863  -0.002913  -0.002825  -0.039647
     4  H    0.396003  -0.041729  -0.002913   0.566766  -0.031484  -0.002968
     5  H    0.396082  -0.041919  -0.002825  -0.031484   0.567357   0.004575
     6  H   -0.043689   0.398990  -0.039647  -0.002968   0.004575   0.564657
     7  H   -0.043585   0.398661  -0.039621   0.004577  -0.002980  -0.031676
     8  H   -0.003832  -0.038528   0.390541   0.000154   0.002615   0.004230
     9  H   -0.003827  -0.038126   0.393539   0.002641   0.000147  -0.002948
    10  H    0.004397  -0.035648   0.394030  -0.000058  -0.000060  -0.002541
    11  C    0.355533  -0.051981   0.004029  -0.041692  -0.041747  -0.003208
    12  C   -0.051898   0.003977  -0.000083  -0.003240  -0.003272  -0.000065
    13  C    0.004073  -0.000085   0.000001  -0.000052  -0.000052  -0.000000
    14  H   -0.041707  -0.003260  -0.000050  -0.002805   0.004475   0.002412
    15  H   -0.041641  -0.003247  -0.000055   0.004462  -0.002804   0.000238
    16  H   -0.003188  -0.000065  -0.000001   0.002405   0.000237   0.000017
    17  H   -0.003197  -0.000065  -0.000000   0.000236   0.002410  -0.000003
    18  H   -0.000070  -0.000001  -0.000000  -0.000001   0.000013   0.000000
    19  H   -0.000070  -0.000001  -0.000000   0.000013  -0.000001  -0.000002
    20  H   -0.000087   0.000001  -0.000000   0.000001   0.000001   0.000000
    21  C   -0.000003   0.000003  -0.000170   0.000006  -0.000001  -0.000000
    22  C    0.000000  -0.000001   0.000082  -0.000000  -0.000000  -0.000000
    23  C   -0.000002   0.000051  -0.001510  -0.000001  -0.000000   0.000000
    24  H    0.000005  -0.000009   0.000136   0.000007   0.000007   0.000001
    25  H    0.000000  -0.000002  -0.000060   0.000040  -0.000001  -0.000000
    26  H   -0.000000   0.000000  -0.000007   0.000000  -0.000000   0.000000
    27  H   -0.000000   0.000000  -0.000002  -0.000000   0.000000  -0.000000
    28  H    0.000000   0.000000  -0.000267   0.000000   0.000000   0.000002
    29  H    0.000001   0.000068  -0.001586  -0.000002  -0.000000   0.000002
    30  H   -0.000000  -0.000001   0.000055   0.000000   0.000000  -0.000000
    31  C    0.000000  -0.000000   0.000005  -0.000000   0.000000   0.000000
    32  C   -0.000000   0.000000   0.000000   0.000000   0.000000  -0.000000
    33  C    0.000000  -0.000000   0.000000  -0.000000  -0.000000   0.000000
    34  H   -0.000000   0.000000  -0.000000   0.000000  -0.000000  -0.000000
    35  H   -0.000000   0.000000  -0.000000  -0.000000   0.000000  -0.000000
    36  H    0.000000  -0.000000  -0.000000   0.000000   0.000000   0.000000
    37  H   -0.000000  -0.000000  -0.000000   0.000001  -0.000000  -0.000000
    38  H   -0.000000  -0.000000   0.000000   0.000000   0.000000   0.000000
    39  H   -0.000000   0.000000  -0.000000   0.000000  -0.000000  -0.000000
    40  H    0.000000  -0.000000   0.000000   0.000000  -0.000000   0.000000
               7          8          9         10         11         12
     1  C   -0.043585  -0.003832  -0.003827   0.004397   0.355533  -0.051898
     2  C    0.398661  -0.038528  -0.038126  -0.035648  -0.051981   0.003977
     3  C   -0.039621   0.390541   0.393539   0.394030   0.004029  -0.000083
     4  H    0.004577   0.000154   0.002641  -0.000058  -0.041692  -0.003240
     5  H   -0.002980   0.002615   0.000147  -0.000060  -0.041747  -0.003272
     6  H   -0.031676   0.004230  -0.002948  -0.002541  -0.003208  -0.000065
     7  H    0.565460  -0.002959   0.004142  -0.002545  -0.003250  -0.000064
     8  H   -0.002959   0.551377  -0.029633  -0.027808  -0.000067  -0.000001
     9  H    0.004142  -0.029633   0.538908  -0.027915  -0.000061  -0.000001
    10  H   -0.002545  -0.027808  -0.027915   0.538472  -0.000086   0.000001
    11  C   -0.003250  -0.000067  -0.000061  -0.000086   5.084182   0.352244
    12  C   -0.000064  -0.000001  -0.000001   0.000001   0.352244   5.060432
    13  C   -0.000000  -0.000000   0.000000  -0.000000  -0.057371   0.340652
    14  H    0.000238  -0.000001   0.000013   0.000001   0.396083  -0.041908
    15  H    0.002404   0.000013  -0.000001   0.000001   0.396105  -0.041822
    16  H   -0.000003   0.000000  -0.000002   0.000000  -0.043637   0.399117
    17  H    0.000017  -0.000002   0.000000   0.000000  -0.043646   0.399112
    18  H   -0.000002   0.000000  -0.000000  -0.000000  -0.003795  -0.038894
    19  H    0.000000  -0.000000   0.000000  -0.000000  -0.003795  -0.038897
    20  H    0.000000  -0.000000  -0.000000   0.000000   0.004401  -0.035845
    21  C   -0.000000  -0.000039   0.000211   0.000011   0.000000   0.000000
    22  C    0.000000  -0.000019  -0.000132   0.000003  -0.000000   0.000000
    23  C   -0.000001   0.000066  -0.001153   0.000001   0.000000  -0.000000
    24  H   -0.000000   0.000431   0.000054  -0.000006  -0.000000   0.000000
    25  H    0.000000  -0.000005   0.000366   0.000000  -0.000000  -0.000000
    26  H   -0.000000   0.000001   0.000008   0.000000   0.000000  -0.000000
    27  H   -0.000000   0.000000  -0.000005   0.000000   0.000000  -0.000000
    28  H   -0.000000   0.000006   0.000561   0.000030   0.000000  -0.000000
    29  H   -0.000002   0.000224  -0.001665   0.000311  -0.000000   0.000000
    30  H    0.000000  -0.000002   0.000070  -0.000002  -0.000000   0.000000
    31  C    0.000000   0.000000   0.000001  -0.000000  -0.000000  -0.000000
    32  C   -0.000000  -0.000000  -0.000000   0.000000   0.000000  -0.000000
    33  C    0.000000  -0.000000  -0.000000  -0.000000  -0.000000   0.000000
    34  H   -0.000000  -0.000000   0.000000   0.000000   0.000000   0.000000
    35  H   -0.000000   0.000000  -0.000000   0.000000   0.000000   0.000000
    36  H   -0.000000   0.000000   0.000000   0.000000   0.000000   0.000000
    37  H   -0.000000  -0.000000   0.000000   0.000000   0.000000   0.000000
    38  H   -0.000000   0.000000   0.000000   0.000000   0.000000   0.000000
    39  H   -0.000000  -0.000000  -0.000000   0.000000   0.000000   0.000000
    40  H   -0.000000   0.000000   0.000000   0.000000  -0.000000   0.000000
              13         14         15         16         17         18
     1  C    0.004073  -0.041707  -0.041641  -0.003188  -0.003197  -0.000070
     2  C   -0.000085  -0.003260  -0.003247  -0.000065  -0.000065  -0.000001
     3  C    0.000001  -0.000050  -0.000055  -0.000001  -0.000000  -0.000000
     4  H   -0.000052  -0.002805   0.004462   0.002405   0.000236  -0.000001
     5  H   -0.000052   0.004475  -0.002804   0.000237   0.002410   0.000013
     6  H   -0.000000   0.002412   0.000238   0.000017  -0.000003   0.000000
     7  H   -0.000000   0.000238   0.002404  -0.000003   0.000017  -0.000002
     8  H   -0.000000  -0.000001   0.000013   0.000000  -0.000002   0.000000
     9  H    0.000000   0.000013  -0.000001  -0.000002   0.000000  -0.000000
    10  H   -0.000000   0.000001   0.000001   0.000000   0.000000  -0.000000
    11  C   -0.057371   0.396083   0.396105  -0.043637  -0.043646  -0.003795
    12  C    0.340652  -0.041908  -0.041822   0.399117   0.399112  -0.038894
    13  C    5.097428  -0.002866  -0.002863  -0.039907  -0.039902   0.391269
    14  H   -0.002866   0.567187  -0.031516  -0.002988   0.004573   0.000158
    15  H   -0.002863  -0.031516   0.566820   0.004568  -0.002975   0.002625
    16  H   -0.039907  -0.002988   0.004568   0.564440  -0.031653   0.004221
    17  H   -0.039902   0.004573  -0.002975  -0.031653   0.564380  -0.002892
    18  H    0.391269   0.000158   0.002625   0.004221  -0.002892   0.548866
    19  H    0.391261   0.002627   0.000159  -0.002892   0.004221  -0.029147
    20  H    0.394097  -0.000059  -0.000059  -0.002506  -0.002506  -0.027501
    21  C    0.000000  -0.000000  -0.000000  -0.000000  -0.000000   0.000000
    22  C   -0.000000   0.000000   0.000000   0.000000   0.000000  -0.000000
    23  C    0.000000  -0.000000  -0.000000   0.000000  -0.000000   0.000000
    24  H   -0.000000   0.000000   0.000000   0.000000   0.000000   0.000000
    25  H    0.000000  -0.000000   0.000000   0.000000  -0.000000   0.000000
    26  H    0.000000  -0.000000  -0.000000  -0.000000  -0.000000   0.000000
    27  H    0.000000  -0.000000  -0.000000  -0.000000  -0.000000   0.000000
    28  H   -0.000000  -0.000000  -0.000000   0.000000  -0.000000   0.000000
    29  H   -0.000000  -0.000000  -0.000000  -0.000000  -0.000000  -0.000000
    30  H   -0.000000   0.000000  -0.000000  -0.000000  -0.000000  -0.000000
    31  C   -0.000000   0.000000   0.000000   0.000000   0.000000  -0.000000
    32  C    0.000000  -0.000000  -0.000000  -0.000000  -0.000000  -0.000000
    33  C   -0.000000   0.000000   0.000000   0.000000   0.000000   0.000000
    34  H    0.000000  -0.000000  -0.000000  -0.000000  -0.000000   0.000000
    35  H    0.000000  -0.000000  -0.000000  -0.000000  -0.000000   0.000000
    36  H   -0.000000   0.000000  -0.000000  -0.000000   0.000000   0.000000
    37  H   -0.000000  -0.000000   0.000000   0.000000  -0.000000   0.000000
    38  H   -0.000000  -0.000000  -0.000000  -0.000000  -0.000000  -0.000000
    39  H    0.000000  -0.000000  -0.000000  -0.000000  -0.000000   0.000000
    40  H   -0.000000   0.000000   0.000000   0.000000   0.000000   0.000000
              19         20         21         22         23         24
     1  C   -0.000070  -0.000087  -0.000003   0.000000  -0.000002   0.000005
     2  C   -0.000001   0.000001   0.000003  -0.000001   0.000051  -0.000009
     3  C   -0.000000  -0.000000  -0.000170   0.000082  -0.001510   0.000136
     4  H    0.000013   0.000001   0.000006  -0.000000  -0.000001   0.000007
     5  H   -0.000001   0.000001  -0.000001  -0.000000  -0.000000   0.000007
     6  H   -0.000002   0.000000  -0.000000  -0.000000   0.000000   0.000001
     7  H    0.000000   0.000000  -0.000000   0.000000  -0.000001  -0.000000
     8  H   -0.000000  -0.000000  -0.000039  -0.000019   0.000066   0.000431
     9  H    0.000000  -0.000000   0.000211  -0.000132  -0.001153   0.000054
    10  H   -0.000000   0.000000   0.000011   0.000003   0.000001  -0.000006
    11  C   -0.003795   0.004401   0.000000  -0.000000   0.000000  -0.000000
    12  C   -0.038897  -0.035845   0.000000   0.000000  -0.000000   0.000000
    13  C    0.391261   0.394097   0.000000  -0.000000   0.000000  -0.000000
    14  H    0.002627  -0.000059  -0.000000   0.000000  -0.000000   0.000000
    15  H    0.000159  -0.000059  -0.000000   0.000000  -0.000000   0.000000
    16  H   -0.002892  -0.002506  -0.000000   0.000000   0.000000   0.000000
    17  H    0.004221  -0.002506  -0.000000   0.000000  -0.000000   0.000000
    18  H   -0.029147  -0.027501   0.000000  -0.000000   0.000000   0.000000
    19  H    0.548903  -0.027505  -0.000000   0.000000  -0.000000  -0.000000
    20  H   -0.027505   0.537397  -0.000000   0.000000  -0.000000   0.000000
    21  C   -0.000000  -0.000000   5.086777   0.352205  -0.057363   0.396489
    22  C    0.000000   0.000000   0.352205   5.059940   0.339319  -0.041318
    23  C   -0.000000  -0.000000  -0.057363   0.339319   5.105074  -0.002721
    24  H   -0.000000   0.000000   0.396489  -0.041318  -0.002721   0.562887
    25  H    0.000000   0.000000   0.395806  -0.041682  -0.002891  -0.031791
    26  H   -0.000000  -0.000000  -0.043731   0.398895  -0.039623  -0.003000
    27  H    0.000000  -0.000000  -0.043837   0.398950  -0.039770   0.004530
    28  H   -0.000000   0.000000  -0.003894  -0.038885   0.391879   0.000111
    29  H   -0.000000   0.000000  -0.003843  -0.038184   0.393276   0.002216
    30  H   -0.000000   0.000000   0.004413  -0.035489   0.392944  -0.000056
    31  C    0.000000  -0.000000   0.355075  -0.052021   0.004061  -0.041358
    32  C   -0.000000   0.000000  -0.051972   0.003977  -0.000085  -0.003236
    33  C    0.000000  -0.000000   0.004072  -0.000085   0.000001  -0.000051
    34  H   -0.000000   0.000000  -0.041668  -0.003236  -0.000052  -0.002832
    35  H    0.000000   0.000000  -0.041605  -0.003224  -0.000052   0.004426
    36  H    0.000000   0.000000  -0.003167  -0.000064  -0.000000   0.002394
    37  H   -0.000000   0.000000  -0.003196  -0.000064  -0.000000   0.000235
    38  H   -0.000000   0.000000  -0.000070  -0.000001  -0.000000  -0.000001
    39  H   -0.000000   0.000000  -0.000070  -0.000001  -0.000000   0.000013
    40  H    0.000000   0.000000  -0.000087   0.000001  -0.000000   0.000001
              25         26         27         28         29         30
     1  C    0.000000  -0.000000  -0.000000   0.000000   0.000001  -0.000000
     2  C   -0.000002   0.000000   0.000000   0.000000   0.000068  -0.000001
     3  C   -0.000060  -0.000007  -0.000002  -0.000267  -0.001586   0.000055
     4  H    0.000040   0.000000  -0.000000   0.000000  -0.000002   0.000000
     5  H   -0.000001  -0.000000   0.000000   0.000000  -0.000000   0.000000
     6  H   -0.000000   0.000000  -0.000000   0.000002   0.000002  -0.000000
     7  H    0.000000  -0.000000  -0.000000  -0.000000  -0.000002   0.000000
     8  H   -0.000005   0.000001   0.000000   0.000006   0.000224  -0.000002
     9  H    0.000366   0.000008  -0.000005   0.000561  -0.001665   0.000070
    10  H    0.000000   0.000000   0.000000   0.000030   0.000311  -0.000002
    11  C   -0.000000   0.000000   0.000000   0.000000  -0.000000  -0.000000
    12  C   -0.000000  -0.000000  -0.000000  -0.000000   0.000000   0.000000
    13  C    0.000000   0.000000   0.000000  -0.000000  -0.000000  -0.000000
    14  H   -0.000000  -0.000000  -0.000000  -0.000000  -0.000000   0.000000
    15  H    0.000000  -0.000000  -0.000000  -0.000000  -0.000000  -0.000000
    16  H    0.000000  -0.000000  -0.000000   0.000000  -0.000000  -0.000000
    17  H   -0.000000  -0.000000  -0.000000  -0.000000  -0.000000  -0.000000
    18  H    0.000000   0.000000   0.000000   0.000000  -0.000000  -0.000000
    19  H    0.000000  -0.000000   0.000000  -0.000000  -0.000000  -0.000000
    20  H    0.000000  -0.000000  -0.000000   0.000000   0.000000   0.000000
    21  C    0.395806  -0.043731  -0.043837  -0.003894  -0.003843   0.004413
    22  C   -0.041682   0.398895   0.398950  -0.038885  -0.038184  -0.035489
    23  C   -0.002891  -0.039623  -0.039770   0.391879   0.393276   0.392944
    24  H   -0.031791  -0.003000   0.004530   0.000111   0.002216  -0.000056
    25  H    0.568600   0.004588  -0.002989   0.002553   0.000106  -0.000064
    26  H    0.004588   0.564860  -0.031530   0.004228  -0.002975  -0.002608
    27  H   -0.002989  -0.031530   0.565508  -0.002943   0.004135  -0.002612
    28  H    0.002553   0.004228  -0.002943   0.551345  -0.030293  -0.027594
    29  H    0.000106  -0.002975   0.004135  -0.030293   0.539326  -0.027002
    30  H   -0.000064  -0.002608  -0.002612  -0.027594  -0.027002   0.538688
    31  C   -0.041739  -0.003286  -0.003312  -0.000072  -0.000063  -0.000084
    32  C   -0.003280  -0.000065  -0.000065  -0.000000  -0.000000   0.000001
    33  C   -0.000052  -0.000001  -0.000001  -0.000000   0.000000  -0.000000
    34  H    0.004477   0.002422   0.000245  -0.000002   0.000012   0.000001
    35  H   -0.002816   0.000244   0.002428   0.000013  -0.000002   0.000001
    36  H    0.000240   0.000017  -0.000003   0.000000  -0.000002   0.000000
    37  H    0.002412  -0.000003   0.000017  -0.000002   0.000000   0.000000
    38  H    0.000013   0.000000  -0.000002   0.000000  -0.000000  -0.000000
    39  H   -0.000001  -0.000002   0.000000  -0.000000   0.000000  -0.000000
    40  H    0.000001   0.000000   0.000000  -0.000000  -0.000000   0.000000
              31         32         33         34         35         36
     1  C    0.000000  -0.000000   0.000000  -0.000000  -0.000000   0.000000
     2  C   -0.000000   0.000000  -0.000000   0.000000   0.000000  -0.000000
     3  C    0.000005   0.000000   0.000000  -0.000000  -0.000000  -0.000000
     4  H   -0.000000   0.000000  -0.000000   0.000000  -0.000000   0.000000
     5  H    0.000000   0.000000  -0.000000  -0.000000   0.000000   0.000000
     6  H    0.000000  -0.000000   0.000000  -0.000000  -0.000000   0.000000
     7  H    0.000000  -0.000000   0.000000  -0.000000  -0.000000  -0.000000
     8  H    0.000000  -0.000000  -0.000000  -0.000000   0.000000   0.000000
     9  H    0.000001  -0.000000  -0.000000   0.000000  -0.000000   0.000000
    10  H   -0.000000   0.000000  -0.000000   0.000000   0.000000   0.000000
    11  C   -0.000000   0.000000  -0.000000   0.000000   0.000000   0.000000
    12  C   -0.000000  -0.000000   0.000000   0.000000   0.000000   0.000000
    13  C   -0.000000   0.000000  -0.000000   0.000000   0.000000  -0.000000
    14  H    0.000000  -0.000000   0.000000  -0.000000  -0.000000   0.000000
    15  H    0.000000  -0.000000   0.000000  -0.000000  -0.000000  -0.000000
    16  H    0.000000  -0.000000   0.000000  -0.000000  -0.000000  -0.000000
    17  H    0.000000  -0.000000   0.000000  -0.000000  -0.000000   0.000000
    18  H   -0.000000  -0.000000   0.000000   0.000000   0.000000   0.000000
    19  H    0.000000  -0.000000   0.000000  -0.000000   0.000000   0.000000
    20  H   -0.000000   0.000000  -0.000000   0.000000   0.000000   0.000000
    21  C    0.355075  -0.051972   0.004072  -0.041668  -0.041605  -0.003167
    22  C   -0.052021   0.003977  -0.000085  -0.003236  -0.003224  -0.000064
    23  C    0.004061  -0.000085   0.000001  -0.000052  -0.000052  -0.000000
    24  H   -0.041358  -0.003236  -0.000051  -0.002832   0.004426   0.002394
    25  H   -0.041739  -0.003280  -0.000052   0.004477  -0.002816   0.000240
    26  H   -0.003286  -0.000065  -0.000001   0.002422   0.000244   0.000017
    27  H   -0.003312  -0.000065  -0.000001   0.000245   0.002428  -0.000003
    28  H   -0.000072  -0.000000  -0.000000  -0.000002   0.000013   0.000000
    29  H   -0.000063  -0.000000   0.000000   0.000012  -0.000002  -0.000002
    30  H   -0.000084   0.000001  -0.000000   0.000001   0.000001   0.000000
    31  C    5.084521   0.352288  -0.057354   0.396063   0.396011  -0.043636
    32  C    0.352288   5.060428   0.340624  -0.041893  -0.041850   0.399142
    33  C   -0.057354   0.340624   5.097490  -0.002869  -0.002866  -0.039909
    34  H    0.396063  -0.041893  -0.002869   0.567028  -0.031497  -0.002982
    35  H    0.396011  -0.041850  -0.002866  -0.031497   0.566964   0.004569
    36  H   -0.043636   0.399142  -0.039909  -0.002982   0.004569   0.564207
    37  H   -0.043668   0.399099  -0.039916   0.004573  -0.002971  -0.031634
    38  H   -0.003796  -0.038893   0.391257   0.000158   0.002624   0.004220
    39  H   -0.003795  -0.038897   0.391261   0.002628   0.000159  -0.002891
    40  H    0.004400  -0.035840   0.394095  -0.000059  -0.000059  -0.002505
              37         38         39         40
     1  C   -0.000000  -0.000000  -0.000000   0.000000
     2  C   -0.000000  -0.000000   0.000000  -0.000000
     3  C   -0.000000   0.000000  -0.000000   0.000000
     4  H    0.000001   0.000000   0.000000   0.000000
     5  H   -0.000000   0.000000  -0.000000  -0.000000
     6  H   -0.000000   0.000000  -0.000000   0.000000
     7  H   -0.000000  -0.000000  -0.000000  -0.000000
     8  H   -0.000000   0.000000  -0.000000   0.000000
     9  H    0.000000   0.000000  -0.000000   0.000000
    10  H    0.000000   0.000000   0.000000   0.000000
    11  C    0.000000   0.000000   0.000000  -0.000000
    12  C    0.000000   0.000000   0.000000   0.000000
    13  C   -0.000000  -0.000000   0.000000  -0.000000
    14  H   -0.000000  -0.000000  -0.000000   0.000000
    15  H    0.000000  -0.000000  -0.000000   0.000000
    16  H    0.000000  -0.000000  -0.000000   0.000000
    17  H   -0.000000  -0.000000  -0.000000   0.000000
    18  H    0.000000  -0.000000   0.000000   0.000000
    19  H   -0.000000  -0.000000  -0.000000   0.000000
    20  H    0.000000   0.000000   0.000000   0.000000
    21  C   -0.003196  -0.000070  -0.000070  -0.000087
    22  C   -0.000064  -0.000001  -0.000001   0.000001
    23  C   -0.000000  -0.000000  -0.000000  -0.000000
    24  H    0.000235  -0.000001   0.000013   0.000001
    25  H    0.002412   0.000013  -0.000001   0.000001
    26  H   -0.000003   0.000000  -0.000002   0.000000
    27  H    0.000017  -0.000002   0.000000   0.000000
    28  H   -0.000002   0.000000  -0.000000  -0.000000
    29  H    0.000000  -0.000000   0.000000  -0.000000
    30  H    0.000000  -0.000000  -0.000000   0.000000
    31  C   -0.043668  -0.003796  -0.003795   0.004400
    32  C    0.399099  -0.038893  -0.038897  -0.035840
    33  C   -0.039916   0.391257   0.391261   0.394095
    34  H    0.004573   0.000158   0.002628  -0.000059
    35  H   -0.002971   0.002624   0.000159  -0.000059
    36  H   -0.031634   0.004220  -0.002891  -0.002505
    37  H    0.564520  -0.002891   0.004222  -0.002507
    38  H   -0.002891   0.548923  -0.029148  -0.027504
    39  H    0.004222  -0.029148   0.548901  -0.027503
    40  H   -0.002507  -0.027504  -0.027503   0.537376
 Mulliken charges:
               1
     1  C   -0.298153
     2  C   -0.300686
     3  C   -0.480903
     4  H    0.149634
     5  H    0.149225
     6  H    0.151624
     7  H    0.151191
     8  H    0.153236
     9  H    0.164806
    10  H    0.159413
    11  C   -0.298243
    12  C   -0.299548
    13  C   -0.475681
    14  H    0.149391
    15  H    0.149590
    16  H    0.151837
    17  H    0.151891
    18  H    0.155148
    19  H    0.155124
    20  H    0.160171
    21  C   -0.300352
    22  C   -0.298967
    23  C   -0.481448
    24  H    0.152436
    25  H    0.148172
    26  H    0.151565
    27  H    0.151257
    28  H    0.153222
    29  H    0.165942
    30  H    0.159341
    31  C   -0.298241
    32  C   -0.299482
    33  C   -0.475698
    34  H    0.149481
    35  H    0.149503
    36  H    0.152004
    37  H    0.151772
    38  H    0.155110
    39  H    0.155123
    40  H    0.160190
 Sum of Mulliken charges =  -0.00000
 Mulliken charges with hydrogens summed into heavy atoms:
               1
     1  C    0.000706
     2  C    0.002129
     3  C   -0.003447
    11  C    0.000738
    12  C    0.004180
    13  C   -0.005238
    21  C    0.000256
    22  C    0.003855
    23  C   -0.002942
    31  C    0.000743
    32  C    0.004294
    33  C   -0.005274
 Electronic spatial extent (au):  <R**2>=           6140.1852
 Charge=              0.0000 electrons
 Dipole moment (field-independent basis, Debye):
    X=              0.0115    Y=             -0.0156    Z=              0.0098  Tot=              0.0217
 Quadrupole moment (field-independent basis, Debye-Ang):
   XX=            -86.3506   YY=            -85.8471   ZZ=            -82.8407
   XY=             -0.1669   XZ=             -0.3682   YZ=             -0.1133
 Traceless Quadrupole moment (field-independent basis, Debye-Ang):
   XX=             -1.3378   YY=             -0.8343   ZZ=              2.1721
   XY=             -0.1669   XZ=             -0.3682   YZ=             -0.1133
 Octapole moment (field-independent basis, Debye-Ang**2):
  XXX=              6.1968  YYY=             -0.5284  ZZZ=             -0.0208  XYY=             -2.7612
  XXY=             -5.8826  XXZ=              2.4636  XZZ=              0.0641  YZZ=              0.2371
  YYZ=             -0.0385  XYZ=             -1.6300
 Hexadecapole moment (field-independent basis, Debye-Ang**3):
 XXXX=          -6509.8691 YYYY=          -2059.9262 ZZZZ=           -252.7710 XXXY=              3.0424
 XXXZ=            -20.2070 YYYX=            -24.0123 YYYZ=             -3.6293 ZZZX=             -0.2271
 ZZZY=              0.5230 XXYY=          -1433.7300 XXZZ=          -1080.0241 YYZZ=           -385.3717
 XXYZ=             -0.4095 YYXZ=             -2.8858 ZZXY=              4.3814
 N-N= 6.845581139495D+02 E-N=-2.462300494589D+03  KE= 4.702343555441D+02
 Leave Link  601 at Wed May  5 16:45:00 2021, MaxMem=   524288000 cpu:               0.4 elap:               0.4
 (Enter /opt/gaussian/g16_legacy/l9999.exe)
 1\1\GINC-TRUENO92\SP\RMP2-FC\6-31G(d)\C12H28\JRAMOS\05-May-2021\0\\#p 
 6-31g* mp2\\Input file generated by CHIRIPA (05-May-2021 14:51:11)\\0,
 1\C,0,-0.666,-0.374,0.\C,0,-1.882,0.553,0.\C,0,-3.207,-0.21,0.\H,0,-0.
 713,-1.03,-0.88\H,0,-0.713,-1.029,0.881\H,0,-1.832,1.207,-0.88\H,0,-1.
 832,1.207,0.88\H,0,-3.283,-0.85,0.885\H,0,-3.283,-0.85,-0.885\H,0,-4.0
 63,0.472,0.\C,0,0.666,0.374,0.\C,0,1.882,-0.553,0.\C,0,3.207,0.21,0.\H
 ,0,0.713,1.029,-0.881\H,0,0.713,1.03,0.88\H,0,1.832,-1.207,-0.88\H,0,1
 .832,-1.207,0.88\H,0,3.283,0.85,0.885\H,0,3.283,0.85,-0.885\H,0,4.063,
 -0.472,0.\C,0,-4.273618,-4.100374,-1.413165\C,0,-5.64427,-3.609958,-1.
 880917\C,0,-5.726468,-2.086072,-1.974763\H,0,-4.048069,-3.658521,-0.43
 2941\H,0,-3.504269,-3.732737,-2.10623\H,0,-6.410953,-3.979565,-1.18795
 \H,0,-5.866666,-4.053181,-2.860054\H,0,-4.982912,-1.70294,-2.681117\H,
 0,-5.530291,-1.628906,-0.999512\H,0,-6.714768,-1.757275,-2.310941\C,0,
 -4.175838,-5.62169,-1.314359\C,0,-2.805187,-6.112106,-0.846607\C,0,-2.
 722989,-7.635992,-0.752761\H,0,-4.945188,-5.989327,-0.621294\H,0,-4.40
 1388,-6.063543,-2.294583\H,0,-2.58279,-5.668883,0.13253\H,0,-2.038503,
 -5.742499,-1.539574\H,0,-2.919165,-8.093159,-1.728012\H,0,-3.466545,-8
 .019125,-0.046407\H,0,-1.734688,-7.964789,-0.416583\\Version=EM64L-G16
 RevA.03\State=1-A\HF=-470.7319864\MP2=-472.3155385\RMSD=1.985e-09\PG=C
 01 [X(C12H28)]\\@


 "THE TIME HAS COME", THE WALRUS SAID,
 "TO TALK OF MANY THINGS,
 OF SHOES AND SHIPS AND SEALING WAX,
 OF CABBAGES AND KINGS,
 AND WHY THE SEA IS BOILING HOT,
 AND WHETHER PIGS HAVE WINGS."
 Job cpu time:       0 days  0 hours  1 minutes 44.7 seconds.
 Elapsed time:       0 days  0 hours  0 minutes 58.0 seconds.
 File lengths (MBytes):  RWF=     26 Int=      0 D2E=      0 Chk=      5 Scr=      1
 Normal termination of Gaussian 16 at Wed May  5 16:45:00 2021.
