 Entering Gaussian System, Link 0=/opt/gaussian/g16_legacy/g16
 Input=gaussian_02991_2_2.com
 Output=gaussian_02991_2_2.log
 Initial command:
 /opt/gaussian/g16_legacy/l1.exe "/scratch-local/jramos/2587395/Gau-1095.inp" -scrdir="/scratch-local/jramos/2587395/"
 Entering Link 1 = /opt/gaussian/g16_legacy/l1.exe PID=      1096.
  
 Copyright (c) 1988,1990,1992,1993,1995,1998,2003,2009,2016,
            Gaussian, Inc.  All Rights Reserved.
  
 This is part of the Gaussian(R) 16 program.  It is based on
 the Gaussian(R) 09 system (copyright 2009, Gaussian, Inc.),
 the Gaussian(R) 03 system (copyright 2003, Gaussian, Inc.),
 the Gaussian(R) 98 system (copyright 1998, Gaussian, Inc.),
 the Gaussian(R) 94 system (copyright 1995, Gaussian, Inc.),
 the Gaussian 92(TM) system (copyright 1992, Gaussian, Inc.),
 the Gaussian 90(TM) system (copyright 1990, Gaussian, Inc.),
 the Gaussian 88(TM) system (copyright 1988, Gaussian, Inc.),
 the Gaussian 86(TM) system (copyright 1986, Carnegie Mellon
 University), and the Gaussian 82(TM) system (copyright 1983,
 Carnegie Mellon University). Gaussian is a federally registered
 trademark of Gaussian, Inc.
  
 This software contains proprietary and confidential information,
 including trade secrets, belonging to Gaussian, Inc.
  
 This software is provided under written license and may be
 used, copied, transmitted, or stored only in accord with that
 written license.
  
 The following legend is applicable only to US Government
 contracts under FAR:
  
                    RESTRICTED RIGHTS LEGEND
  
 Use, reproduction and disclosure by the US Government is
 subject to restrictions as set forth in subparagraphs (a)
 and (c) of the Commercial Computer Software - Restricted
 Rights clause in FAR 52.227-19.
  
 Gaussian, Inc.
 340 Quinnipiac St., Bldg. 40, Wallingford CT 06492
  
  
 ---------------------------------------------------------------
 Warning -- This program may not be used in any manner that
 competes with the business of Gaussian, Inc. or will provide
 assistance to any competitor of Gaussian, Inc.  The licensee
 of this program is prohibited from giving any competitor of
 Gaussian, Inc. access to this program.  By using this program,
 the user acknowledges that Gaussian, Inc. is engaged in the
 business of creating and licensing software in the field of
 computational chemistry and represents and warrants to the
 licensee that it is not a competitor of Gaussian, Inc. and that
 it will not use this program in any manner prohibited above.
 ---------------------------------------------------------------
  

 Cite this work as:
 Gaussian 16, Revision A.03,
 M. J. Frisch, G. W. Trucks, H. B. Schlegel, G. E. Scuseria, 
 M. A. Robb, J. R. Cheeseman, G. Scalmani, V. Barone, 
 G. A. Petersson, H. Nakatsuji, X. Li, M. Caricato, A. V. Marenich, 
 J. Bloino, B. G. Janesko, R. Gomperts, B. Mennucci, H. P. Hratchian, 
 J. V. Ortiz, A. F. Izmaylov, J. L. Sonnenberg, D. Williams-Young, 
 F. Ding, F. Lipparini, F. Egidi, J. Goings, B. Peng, A. Petrone, 
 T. Henderson, D. Ranasinghe, V. G. Zakrzewski, J. Gao, N. Rega, 
 G. Zheng, W. Liang, M. Hada, M. Ehara, K. Toyota, R. Fukuda, 
 J. Hasegawa, M. Ishida, T. Nakajima, Y. Honda, O. Kitao, H. Nakai, 
 T. Vreven, K. Throssell, J. A. Montgomery, Jr., J. E. Peralta, 
 F. Ogliaro, M. J. Bearpark, J. J. Heyd, E. N. Brothers, K. N. Kudin, 
 V. N. Staroverov, T. A. Keith, R. Kobayashi, J. Normand, 
 K. Raghavachari, A. P. Rendell, J. C. Burant, S. S. Iyengar, 
 J. Tomasi, M. Cossi, J. M. Millam, M. Klene, C. Adamo, R. Cammi, 
 J. W. Ochterski, R. L. Martin, K. Morokuma, O. Farkas, 
 J. B. Foresman, and D. J. Fox, Gaussian, Inc., Wallingford CT, 2016.
 
 ******************************************
 Gaussian 16:  EM64L-G16RevA.03 25-Dec-2016
                 5-May-2021 
 ******************************************
 %chk=gaussian_02991_2_2.chk
 %nproc=2
 Will use up to    2 processors via shared memory.
 %mem=4000Mb
 -------------
 #p 6-31g* mp2
 -------------
 1/38=1,172=1/1;
 2/12=2,17=6,18=5,40=1/2;
 3/5=1,6=6,7=1,11=9,25=1,30=1/1,2,3;
 4//1;
 5/5=2,38=5/2;
 8/10=2/1;
 9/16=-3/6;
 6/7=2,8=2,9=2,10=2/1;
 99/5=1,9=1/99;
 Leave Link    1 at Wed May  5 21:03:57 2021, MaxMem=   524288000 cpu:               0.2 elap:               0.2
 (Enter /opt/gaussian/g16_legacy/l101.exe)
 ------------------------------------------------------
 Input file generated by CHIRIPA (05-May-2021 14:57:25)
 ------------------------------------------------------
 Symbolic Z-matrix:
 Charge =  0 Multiplicity = 1
 C                     1.91414   0.        0. 
 C                     1.21414   1.211     0. 
 C                    -0.18386   1.223     0. 
 C                    -0.85286   0.        0. 
 C                    -0.18386  -1.223     0. 
 C                     1.21414  -1.211     0. 
 H                     3.00014   0.        0. 
 H                     1.75514   2.153     0. 
 H                    -0.75086   2.146     0. 
 H                    -0.75086  -2.146     0. 
 H                     1.75514  -2.153     0. 
 N                    -2.33286   0.        0. 
 O                    -2.89886  -1.091     0. 
 O                    -2.89886   1.091     0. 
 C                     2.14736   3.22919  -4.55497 
 C                     1.67629   2.31225  -3.60954 
 C                     2.26041   1.04725  -3.49492 
 C                     3.31854   0.73103  -4.3456 
 C                     3.81034   1.62281  -5.29753 
 C                     3.21101   2.88216  -5.39446 
 H                     1.6877    4.20967  -4.63714 
 H                     0.8504    2.57903  -2.95626 
 H                     1.91554   0.31816  -2.7718 
 H                     4.63519   1.32808  -5.93484 
 H                     3.57892   3.59225  -6.12961 
 N                     3.94497  -0.60518  -4.23362 
 O                     4.87586  -0.85947  -4.99482 
 O                     3.49322  -1.3729   -3.38677 
 
 ITRead=  0  0  0  0  0  0  0  0  0  0  0  0  0  0  0  0  0  0  0  0
 ITRead=  0  0  0  0  0  0  0  0
 MicOpt= -1 -1 -1 -1 -1 -1 -1 -1 -1 -1 -1 -1 -1 -1 -1 -1 -1 -1 -1 -1
 MicOpt= -1 -1 -1 -1 -1 -1 -1 -1
 NAtoms=     28 NQM=       28 NQMF=       0 NMMI=      0 NMMIF=      0
                NMic=       0 NMicF=      0.
                    Isotopes and Nuclear Properties:
 (Nuclear quadrupole moments (NQMom) in fm**2, nuclear magnetic moments (NMagM)
  in nuclear magnetons)

  Atom         1           2           3           4           5           6           7           8           9          10
 IAtWgt=          12          12          12          12          12          12           1           1           1           1
 AtmWgt=  12.0000000  12.0000000  12.0000000  12.0000000  12.0000000  12.0000000   1.0078250   1.0078250   1.0078250   1.0078250
 NucSpn=           0           0           0           0           0           0           1           1           1           1
 AtZEff=  -0.0000000  -0.0000000  -0.0000000  -0.0000000  -0.0000000  -0.0000000  -0.0000000  -0.0000000  -0.0000000  -0.0000000
 NQMom=    0.0000000   0.0000000   0.0000000   0.0000000   0.0000000   0.0000000   0.0000000   0.0000000   0.0000000   0.0000000
 NMagM=    0.0000000   0.0000000   0.0000000   0.0000000   0.0000000   0.0000000   2.7928460   2.7928460   2.7928460   2.7928460
 AtZNuc=   6.0000000   6.0000000   6.0000000   6.0000000   6.0000000   6.0000000   1.0000000   1.0000000   1.0000000   1.0000000

  Atom        11          12          13          14          15          16          17          18          19          20
 IAtWgt=           1          14          16          16          12          12          12          12          12          12
 AtmWgt=   1.0078250  14.0030740  15.9949146  15.9949146  12.0000000  12.0000000  12.0000000  12.0000000  12.0000000  12.0000000
 NucSpn=           1           2           0           0           0           0           0           0           0           0
 AtZEff=  -0.0000000  -0.0000000  -0.0000000  -0.0000000  -0.0000000  -0.0000000  -0.0000000  -0.0000000  -0.0000000  -0.0000000
 NQMom=    0.0000000   2.0440000   0.0000000   0.0000000   0.0000000   0.0000000   0.0000000   0.0000000   0.0000000   0.0000000
 NMagM=    2.7928460   0.4037610   0.0000000   0.0000000   0.0000000   0.0000000   0.0000000   0.0000000   0.0000000   0.0000000
 AtZNuc=   1.0000000   7.0000000   8.0000000   8.0000000   6.0000000   6.0000000   6.0000000   6.0000000   6.0000000   6.0000000

  Atom        21          22          23          24          25          26          27          28
 IAtWgt=           1           1           1           1           1          14          16          16
 AtmWgt=   1.0078250   1.0078250   1.0078250   1.0078250   1.0078250  14.0030740  15.9949146  15.9949146
 NucSpn=           1           1           1           1           1           2           0           0
 AtZEff=  -0.0000000  -0.0000000  -0.0000000  -0.0000000  -0.0000000  -0.0000000  -0.0000000  -0.0000000
 NQMom=    0.0000000   0.0000000   0.0000000   0.0000000   0.0000000   2.0440000   0.0000000   0.0000000
 NMagM=    2.7928460   2.7928460   2.7928460   2.7928460   2.7928460   0.4037610   0.0000000   0.0000000
 AtZNuc=   1.0000000   1.0000000   1.0000000   1.0000000   1.0000000   7.0000000   8.0000000   8.0000000
 Leave Link  101 at Wed May  5 21:03:57 2021, MaxMem=   524288000 cpu:               0.5 elap:               0.3
 (Enter /opt/gaussian/g16_legacy/l202.exe)
                          Input orientation:                          
 ---------------------------------------------------------------------
 Center     Atomic      Atomic             Coordinates (Angstroms)
 Number     Number       Type             X           Y           Z
 ---------------------------------------------------------------------
      1          6           0        1.914143    0.000000    0.000000
      2          6           0        1.214143    1.211000    0.000000
      3          6           0       -0.183857    1.223000    0.000000
      4          6           0       -0.852857    0.000000    0.000000
      5          6           0       -0.183857   -1.223000    0.000000
      6          6           0        1.214143   -1.211000    0.000000
      7          1           0        3.000143    0.000000    0.000000
      8          1           0        1.755143    2.153000    0.000000
      9          1           0       -0.750857    2.146000    0.000000
     10          1           0       -0.750857   -2.146000    0.000000
     11          1           0        1.755143   -2.153000    0.000000
     12          7           0       -2.332857    0.000000    0.000000
     13          8           0       -2.898857   -1.091000    0.000000
     14          8           0       -2.898857    1.091000    0.000000
     15          6           0        2.147364    3.229189   -4.554965
     16          6           0        1.676293    2.312247   -3.609540
     17          6           0        2.260414    1.047252   -3.494917
     18          6           0        3.318539    0.731029   -4.345602
     19          6           0        3.810336    1.622807   -5.297525
     20          6           0        3.211007    2.882155   -5.394461
     21          1           0        1.687698    4.209674   -4.637137
     22          1           0        0.850403    2.579027   -2.956257
     23          1           0        1.915541    0.318155   -2.771800
     24          1           0        4.635191    1.328082   -5.934839
     25          1           0        3.578924    3.592248   -6.129613
     26          7           0        3.944972   -0.605175   -4.233618
     27          8           0        4.875858   -0.859466   -4.994817
     28          8           0        3.493222   -1.372901   -3.386767
 ---------------------------------------------------------------------
                    Distance matrix (angstroms):
                    1          2          3          4          5
     1  C    0.000000
     2  C    1.398757   0.000000
     3  C    2.428443   1.398052   0.000000
     4  C    2.767000   2.395623   1.394019   0.000000
     5  C    2.428443   2.806913   2.446000   1.394019   0.000000
     6  C    1.398757   2.422000   2.806913   2.395623   1.398052
     7  H    1.086000   2.157850   3.410804   3.853000   3.410804
     8  H    2.158863   1.086299   2.150493   3.381874   3.893212
     9  H    3.421628   2.176109   1.083244   2.148423   3.416380
    10  H    3.421628   3.889817   3.416380   2.148423   1.083244
    11  H    2.158863   3.407224   3.893212   3.381874   2.150493
    12  N    4.247000   3.748030   2.472636   1.480000   2.472636
    13  O    4.935104   4.713382   3.567327   2.318706   2.718207
    14  O    4.935104   4.114750   2.718207   2.318706   3.567327
    15  C    5.588359   5.068698   5.496098   6.338509   6.782646
    16  C    4.293232   3.801987   4.204212   4.977134   5.383949
    17  C    3.664844   3.651841   4.268465   4.796211   4.831454
    18  C    4.625039   4.852124   5.602952   6.067883   5.913482
    19  C    5.856007   5.913846   6.646593   7.241729   7.219139
    20  C    6.252110   5.990028   6.586206   7.343161   7.581399
    21  H    6.267031   5.542503   5.824601   6.758610   7.383746
    22  H    4.064773   3.277691   3.412911   4.276907   4.925907
    23  H    2.790000   2.995331   3.592922   3.930410   3.803355
    24  H    6.662598   6.851247   7.645690   8.191751   8.059377
    25  H    7.297116   6.988182   7.572583   8.373594   8.655477
    26  N    4.734345   5.355319   6.189747   6.427202   5.945793
    27  O    5.870148   6.530175   7.408480   7.648860   7.119064
    28  O    3.981022   4.831246   5.632921   5.678332   5.001357
                    6          7          8          9         10
     6  C    0.000000
     7  H    2.157850   0.000000
     8  H    3.407224   2.487053   0.000000
     9  H    3.889817   4.321495   2.506010   0.000000
    10  H    2.176109   4.321495   4.976087   4.292000   0.000000
    11  H    1.086299   2.487053   4.306000   4.976087   2.506010
    12  N    3.748030   5.333000   4.620298   2.666091   2.666091
    13  O    4.114750   5.999040   5.673028   3.884852   2.393100
    14  O    4.713382   5.999040   4.773632   2.393100   3.884852
    15  C    6.429143   5.648239   4.696778   5.506423   7.618402
    16  C    5.065139   4.486407   3.613911   4.352870   6.228628
    17  C    4.290551   3.722685   3.700327   4.742304   5.610620
    18  C    5.204250   4.418148   4.832232   6.119345   6.612226
    19  C    6.544803   5.599436   5.706899   7.010134   7.941798
    20  C    7.059858   6.119762   5.634840   6.733387   8.371315
    21  H    7.149196   6.398977   5.073214   5.631016   8.236758
    22  H    4.820380   4.473502   3.120819   3.389838   5.799083
    23  H    3.242399   2.993403   3.327951   4.258353   4.567780
    24  H    7.305670   6.297579   6.648119   8.056104   8.735049
    25  H    8.138522   7.128211   6.555133   7.642695   9.447044
    26  N    5.074246   4.379779   5.506941   6.895165   6.507570
    27  O    6.203219   5.404182   6.615286   8.101910   7.633039
    28  O    4.085414   3.687570   5.188746   6.470322   5.484531
                   11         12         13         14         15
    11  H    0.000000
    12  N    4.620298   0.000000
    13  O    4.773632   1.229080   0.000000
    14  O    5.673028   1.229080   2.182000   0.000000
    15  C    7.061834   7.158753   8.054569   7.126283   0.000000
    16  C    5.742249   5.869289   6.748546   5.954177   1.398756
    17  C    4.765643   5.865946   6.588220   6.231728   2.428442
    18  C    5.444822   7.166375   7.801286   7.594067   2.767000
    19  C    6.822339   8.272611   8.968935   8.565037   2.428443
    20  C    7.521472   8.254784   9.067337   8.344992   1.398758
    21  H    7.873450   7.442396   8.404563   7.229499   1.086000
    22  H    5.652441   5.052126   6.022085   5.001063   2.158862
    23  H    3.716882   5.082616   5.731232   5.608796   3.421628
    24  H    7.458882   9.248773   9.891216   9.593769   3.421629
    25  H    8.596872   9.242595  10.073064   9.262291   2.158864
    26  N    5.011450   7.596111   8.062105   8.224264   4.247000
    27  O    6.029949   8.812063   9.243809   9.444507   4.935104
    28  O    3.885829   6.877372   7.239360   7.641968   4.935104
                   16         17         18         19         20
    16  C    0.000000
    17  C    1.398052   0.000000
    18  C    2.395623   1.394020   0.000000
    19  C    2.806913   2.446000   1.394019   0.000000
    20  C    2.422000   2.806914   2.395623   1.398052   0.000000
    21  H    2.157850   3.410804   3.853000   3.410804   2.157850
    22  H    1.086299   2.150493   3.381874   3.893212   3.407224
    23  H    2.176109   1.083244   2.148423   3.416380   3.889817
    24  H    3.889817   3.416380   2.148422   1.083244   2.176109
    25  H    3.407224   3.893212   3.381874   2.150493   1.086298
    26  N    3.748030   2.472636   1.480000   2.472636   3.748030
    27  O    4.713382   3.567327   2.318706   2.718207   4.114751
    28  O    4.114751   2.718208   2.318707   3.567327   4.713383
                   21         22         23         24         25
    21  H    0.000000
    22  H    2.487052   0.000000
    23  H    4.321494   2.506010   0.000000
    24  H    4.321495   4.976086   4.292000   0.000000
    25  H    2.487054   4.306000   4.976086   2.506010   0.000000
    26  N    5.333000   4.620298   2.666091   2.666090   4.620297
    27  O    5.999040   5.673028   3.884852   2.393100   4.773631
    28  O    5.999040   4.773632   2.393101   3.884852   5.673029
                   26         27         28
    26  N    0.000000
    27  O    1.229080   0.000000
    28  O    1.229080   2.182000   0.000000
 Stoichiometry    C12H10N2O4
 Framework group  C1[X(C12H10N2O4)]
 Deg. of freedom    78
 Full point group                 C1      NOp   1
 Largest Abelian subgroup         C1      NOp   1
 Largest concise Abelian subgroup C1      NOp   1
                         Standard orientation:                         
 ---------------------------------------------------------------------
 Center     Atomic      Atomic             Coordinates (Angstroms)
 Number     Number       Type             X           Y           Z
 ---------------------------------------------------------------------
      1          6           0       -1.105792   -1.202961    1.640382
      2          6           0       -1.439065    0.146829    1.793735
      3          6           0       -2.445872    0.722690    1.013177
      4          6           0       -3.101889   -0.084106    0.084731
      5          6           0       -2.792681   -1.431932   -0.091470
      6          6           0       -1.782471   -1.986652    0.699927
      7          1           0       -0.322359   -1.642092    2.250949
      8          1           0       -0.915229    0.757857    2.523314
      9          1           0       -2.724034    1.765009    1.111240
     10          1           0       -3.332579   -2.015709   -0.827086
     11          1           0       -1.525759   -3.035193    0.578666
     12          7           0       -4.169551    0.514342   -0.747349
     13          8           0       -4.732549   -0.217827   -1.558273
     14          8           0       -4.423172    1.704243   -0.572852
     15          6           0        2.607913    2.668120    0.074213
     16          6           0        1.497214    1.818242    0.050248
     17          6           0        1.661539    0.439539   -0.113230
     18          6           0        2.956669   -0.057540   -0.250492
     19          6           0        4.083156    0.763390   -0.230740
     20          6           0        3.895071    2.138916   -0.066109
     21          1           0        2.471033    3.737895    0.201654
     22          1           0        0.496417    2.226438    0.158989
     23          1           0        0.819206   -0.241195   -0.135425
     24          1           0        5.068420    0.327067   -0.341620
     25          1           0        4.759491    2.796554   -0.047879
     26          7           0        3.143210   -1.515428   -0.424168
     27          8           0        4.294673   -1.928524   -0.543002
     28          8           0        2.134425   -2.217422   -0.438175
 ---------------------------------------------------------------------
 Rotational constants (GHZ):           0.7019988           0.1904752           0.1662950
 Leave Link  202 at Wed May  5 21:03:58 2021, MaxMem=   524288000 cpu:               0.1 elap:               0.2
 (Enter /opt/gaussian/g16_legacy/l301.exe)
 Standard basis: 6-31G(d) (6D, 7F)
 Ernie: Thresh=  0.10000D-02 Tol=  0.10000D-05 Strict=F.
 There are   290 symmetry adapted cartesian basis functions of A   symmetry.
 There are   290 symmetry adapted basis functions of A   symmetry.
   290 basis functions,   544 primitive gaussians,   290 cartesian basis functions
    64 alpha electrons       64 beta electrons
       nuclear repulsion energy      1181.7916416967 Hartrees.
 IExCor=    0 DFT=F Ex=HF Corr=None ExCW=0 ScaHFX=  1.000000
 ScaDFX=  1.000000  1.000000  1.000000  1.000000 ScalE2=  1.000000  1.000000
 IRadAn=      5 IRanWt=     -1 IRanGd=            0 ICorTp=0 IEmpDi=  4
 NAtoms=   28 NActive=   28 NUniq=   28 SFac= 1.00D+00 NAtFMM=   60 NAOKFM=F Big=F
 Integral buffers will be    131072 words long.
 Raffenetti 1 integral format.
 Two-electron integral symmetry is turned on.
 Leave Link  301 at Wed May  5 21:03:58 2021, MaxMem=   524288000 cpu:               0.4 elap:               0.3
 (Enter /opt/gaussian/g16_legacy/l302.exe)
 NPDir=0 NMtPBC=     1 NCelOv=     1 NCel=       1 NClECP=     1 NCelD=      1
         NCelK=      1 NCelE2=     1 NClLst=     1 CellRange=     0.0.
 One-electron integrals computed using PRISM.
 One-electron integral symmetry used in STVInt
 NBasis=   290 RedAO= T EigKep=  4.68D-04  NBF=   290
 NBsUse=   290 1.00D-06 EigRej= -1.00D+00 NBFU=   290
 Leave Link  302 at Wed May  5 21:03:59 2021, MaxMem=   524288000 cpu:               1.0 elap:               0.7
 (Enter /opt/gaussian/g16_legacy/l303.exe)
 DipDrv:  MaxL=1.
 Leave Link  303 at Wed May  5 21:03:59 2021, MaxMem=   524288000 cpu:               0.2 elap:               0.1
 (Enter /opt/gaussian/g16_legacy/l401.exe)
 ExpMin= 1.61D-01 ExpMax= 5.48D+03 ExpMxC= 8.25D+02 IAcc=3 IRadAn=         5 AccDes= 0.00D+00
 Harris functional with IExCor=  205 and IRadAn=       5 diagonalized for initial guess.
 HarFok:  IExCor=  205 AccDes= 0.00D+00 IRadAn=         5 IDoV= 1 UseB2=F ITyADJ=14
 ICtDFT=  3500011 ScaDFX=  1.000000  1.000000  1.000000  1.000000
 FoFCou: FMM=F IPFlag=           0 FMFlag=      100000 FMFlg1=           0
         NFxFlg=           0 DoJE=T BraDBF=F KetDBF=T FulRan=T
         wScrn=  0.000000 ICntrl=       500 IOpCl=  0 I1Cent=   200000004 NGrid=           0
         NMat0=    1 NMatS0=      1 NMatT0=    0 NMatD0=    1 NMtDS0=    0 NMtDT0=    0
 Petite list used in FoFCou.
 Harris En= -869.213548981496    
 JPrj=0 DoOrth=F DoCkMO=F.
 Leave Link  401 at Wed May  5 21:04:07 2021, MaxMem=   524288000 cpu:              14.4 elap:               7.4
 (Enter /opt/gaussian/g16_legacy/l502.exe)
 Integral symmetry usage will be decided dynamically.
 Closed shell SCF:
 Using DIIS extrapolation, IDIIS=  1040.
 NGot=   524288000 LenX=   524114954 LenY=   524030413
 Requested convergence on RMS density matrix=1.00D-08 within 128 cycles.
 Requested convergence on MAX density matrix=1.00D-06.
 Requested convergence on             energy=1.00D-06.
 No special actions if energy rises.
 Fock matrices will be formed incrementally for  20 cycles.
 Integral accuracy reduced to 1.0D-05 until final iterations.

 Cycle   1  Pass 0  IDiag  1:
 FoFJK:  IHMeth= 1 ICntrl=       0 DoSepK=F KAlg= 0 I1Cent=           0 FoldK=F
 IRaf= 760000000 NMat=       1 IRICut=       1 DoRegI=T DoRafI=F ISym2E= 0 IDoP0=0 IntGTp=1.
 FoFCou: FMM=F IPFlag=           0 FMFlag=      100000 FMFlg1=           0
         NFxFlg=           0 DoJE=F BraDBF=F KetDBF=F FulRan=T
         wScrn=  0.000000 ICntrl=         0 IOpCl=  0 I1Cent=           0 NGrid=           0
         NMat0=    1 NMatS0=      1 NMatT0=    0 NMatD0=    1 NMtDS0=    0 NMtDT0=    0
 Symmetry not used in FoFCou.
 E= -867.613903470177    
 DIIS: error= 5.24D-02 at cycle   1 NSaved=   1.
 NSaved= 1 IEnMin= 1 EnMin= -867.613903470177     IErMin= 1 ErrMin= 5.24D-02
 ErrMax= 5.24D-02  0.00D+00 EMaxC= 1.00D-01 BMatC= 1.28D+00 BMatP= 1.28D+00
 IDIUse=3 WtCom= 4.76D-01 WtEn= 5.24D-01
 Coeff-Com:  0.100D+01
 Coeff-En:   0.100D+01
 Coeff:      0.100D+01
 Gap=     0.553 Goal=   None    Shift=    0.000
 GapD=    0.553 DampG=2.000 DampE=0.500 DampFc=1.0000 IDamp=-1.
 RMSDP=4.49D-03 MaxDP=1.07D-01              OVMax= 1.51D-01

 Cycle   2  Pass 0  IDiag  1:
 RMSU=  4.38D-03    CP:  9.52D-01
 E= -868.121812342586     Delta-E=       -0.507908872409 Rises=F Damp=F
 DIIS: error= 2.75D-02 at cycle   2 NSaved=   2.
 NSaved= 2 IEnMin= 2 EnMin= -868.121812342586     IErMin= 2 ErrMin= 2.75D-02
 ErrMax= 2.75D-02  0.00D+00 EMaxC= 1.00D-01 BMatC= 2.88D-01 BMatP= 1.28D+00
 IDIUse=3 WtCom= 7.25D-01 WtEn= 2.75D-01
 Coeff-Com:  0.267D+00 0.733D+00
 Coeff-En:   0.000D+00 0.100D+01
 Coeff:      0.194D+00 0.806D+00
 Gap=     0.467 Goal=   None    Shift=    0.000
 RMSDP=1.83D-03 MaxDP=8.54D-02 DE=-5.08D-01 OVMax= 1.20D-01

 Cycle   3  Pass 0  IDiag  1:
 RMSU=  1.61D-03    CP:  9.54D-01  8.05D-01
 E= -868.293128257419     Delta-E=       -0.171315914833 Rises=F Damp=F
 DIIS: error= 1.58D-02 at cycle   3 NSaved=   3.
 NSaved= 3 IEnMin= 3 EnMin= -868.293128257419     IErMin= 3 ErrMin= 1.58D-02
 ErrMax= 1.58D-02  0.00D+00 EMaxC= 1.00D-01 BMatC= 6.05D-02 BMatP= 2.88D-01
 IDIUse=3 WtCom= 8.42D-01 WtEn= 1.58D-01
 Coeff-Com: -0.226D-01 0.296D+00 0.727D+00
 Coeff-En:   0.000D+00 0.457D-01 0.954D+00
 Coeff:     -0.190D-01 0.256D+00 0.763D+00
 Gap=     0.418 Goal=   None    Shift=    0.000
 RMSDP=6.58D-04 MaxDP=2.89D-02 DE=-1.71D-01 OVMax= 4.34D-02

 Cycle   4  Pass 0  IDiag  1:
 RMSU=  3.77D-04    CP:  9.53D-01  8.97D-01  7.81D-01
 E= -868.335893343223     Delta-E=       -0.042765085804 Rises=F Damp=F
 DIIS: error= 2.78D-03 at cycle   4 NSaved=   4.
 NSaved= 4 IEnMin= 4 EnMin= -868.335893343223     IErMin= 4 ErrMin= 2.78D-03
 ErrMax= 2.78D-03  0.00D+00 EMaxC= 1.00D-01 BMatC= 2.46D-03 BMatP= 6.05D-02
 IDIUse=3 WtCom= 9.72D-01 WtEn= 2.78D-02
 Coeff-Com: -0.122D-01 0.433D-01 0.241D+00 0.728D+00
 Coeff-En:   0.000D+00 0.000D+00 0.000D+00 0.100D+01
 Coeff:     -0.119D-01 0.421D-01 0.234D+00 0.735D+00
 Gap=     0.407 Goal=   None    Shift=    0.000
 RMSDP=1.65D-04 MaxDP=6.34D-03 DE=-4.28D-02 OVMax= 9.66D-03

 Cycle   5  Pass 0  IDiag  1:
 RMSU=  1.11D-04    CP:  9.52D-01  9.00D-01  8.45D-01  8.36D-01
 E= -868.338033232637     Delta-E=       -0.002139889415 Rises=F Damp=F
 DIIS: error= 4.53D-04 at cycle   5 NSaved=   5.
 NSaved= 5 IEnMin= 5 EnMin= -868.338033232637     IErMin= 5 ErrMin= 4.53D-04
 ErrMax= 4.53D-04  0.00D+00 EMaxC= 1.00D-01 BMatC= 8.02D-05 BMatP= 2.46D-03
 IDIUse=3 WtCom= 9.95D-01 WtEn= 4.53D-03
 Coeff-Com:  0.196D-02-0.229D-01-0.647D-01 0.811D-02 0.108D+01
 Coeff-En:   0.000D+00 0.000D+00 0.000D+00 0.000D+00 0.100D+01
 Coeff:      0.195D-02-0.228D-01-0.644D-01 0.807D-02 0.108D+01
 Gap=     0.409 Goal=   None    Shift=    0.000
 RMSDP=5.81D-05 MaxDP=1.87D-03 DE=-2.14D-03 OVMax= 4.39D-03

 Cycle   6  Pass 0  IDiag  1:
 RMSU=  2.86D-05    CP:  9.52D-01  9.03D-01  8.56D-01  9.33D-01  1.22D+00
 E= -868.338200875119     Delta-E=       -0.000167642482 Rises=F Damp=F
 DIIS: error= 2.12D-04 at cycle   6 NSaved=   6.
 NSaved= 6 IEnMin= 6 EnMin= -868.338200875119     IErMin= 6 ErrMin= 2.12D-04
 ErrMax= 2.12D-04  0.00D+00 EMaxC= 1.00D-01 BMatC= 1.01D-05 BMatP= 8.02D-05
 IDIUse=3 WtCom= 9.98D-01 WtEn= 2.12D-03
 Coeff-Com:  0.128D-02-0.705D-02-0.309D-01-0.628D-01 0.789D-01 0.102D+01
 Coeff-En:   0.000D+00 0.000D+00 0.000D+00 0.000D+00 0.000D+00 0.100D+01
 Coeff:      0.128D-02-0.704D-02-0.308D-01-0.626D-01 0.787D-01 0.102D+01
 Gap=     0.409 Goal=   None    Shift=    0.000
 RMSDP=2.30D-05 MaxDP=6.62D-04 DE=-1.68D-04 OVMax= 1.76D-03

 Cycle   7  Pass 0  IDiag  1:
 RMSU=  1.07D-05    CP:  9.52D-01  9.04D-01  8.59D-01  9.55D-01  1.36D+00
                    CP:  1.27D+00
 E= -868.338231083660     Delta-E=       -0.000030208541 Rises=F Damp=F
 DIIS: error= 1.49D-04 at cycle   7 NSaved=   7.
 NSaved= 7 IEnMin= 7 EnMin= -868.338231083660     IErMin= 7 ErrMin= 1.49D-04
 ErrMax= 1.49D-04  0.00D+00 EMaxC= 1.00D-01 BMatC= 2.13D-06 BMatP= 1.01D-05
 IDIUse=3 WtCom= 9.99D-01 WtEn= 1.49D-03
 Coeff-Com: -0.154D-03 0.247D-02 0.630D-02-0.245D-02-0.145D+00 0.647D-01
 Coeff-Com:  0.107D+01
 Coeff-En:   0.000D+00 0.000D+00 0.000D+00 0.000D+00 0.000D+00 0.000D+00
 Coeff-En:   0.100D+01
 Coeff:     -0.154D-03 0.247D-02 0.629D-02-0.245D-02-0.145D+00 0.646D-01
 Coeff:      0.107D+01
 Gap=     0.409 Goal=   None    Shift=    0.000
 RMSDP=1.09D-05 MaxDP=5.00D-04 DE=-3.02D-05 OVMax= 1.27D-03

 Cycle   8  Pass 0  IDiag  1:
 RMSU=  5.59D-06    CP:  9.52D-01  9.04D-01  8.59D-01  9.61D-01  1.40D+00
                    CP:  1.52D+00  1.34D+00
 E= -868.338239184958     Delta-E=       -0.000008101298 Rises=F Damp=F
 DIIS: error= 6.56D-05 at cycle   8 NSaved=   8.
 NSaved= 8 IEnMin= 8 EnMin= -868.338239184958     IErMin= 8 ErrMin= 6.56D-05
 ErrMax= 6.56D-05  0.00D+00 EMaxC= 1.00D-01 BMatC= 6.00D-07 BMatP= 2.13D-06
 IDIUse=1 WtCom= 1.00D+00 WtEn= 0.00D+00
 Coeff-Com: -0.336D-03 0.226D-02 0.895D-02 0.160D-01-0.485D-01-0.236D+00
 Coeff-Com:  0.185D+00 0.107D+01
 Coeff:     -0.336D-03 0.226D-02 0.895D-02 0.160D-01-0.485D-01-0.236D+00
 Coeff:      0.185D+00 0.107D+01
 Gap=     0.409 Goal=   None    Shift=    0.000
 RMSDP=6.71D-06 MaxDP=2.36D-04 DE=-8.10D-06 OVMax= 7.28D-04

 Initial convergence to 1.0D-05 achieved.  Increase integral accuracy.
 Cycle   9  Pass 1  IDiag  1:
 E= -868.338240001368     Delta-E=       -0.000000816411 Rises=F Damp=F
 DIIS: error= 6.15D-05 at cycle   1 NSaved=   1.
 NSaved= 1 IEnMin= 1 EnMin= -868.338240001368     IErMin= 1 ErrMin= 6.15D-05
 ErrMax= 6.15D-05  0.00D+00 EMaxC= 1.00D-01 BMatC= 4.13D-07 BMatP= 4.13D-07
 IDIUse=1 WtCom= 1.00D+00 WtEn= 0.00D+00
 Coeff-Com:  0.100D+01
 Coeff:      0.100D+01
 Gap=     0.409 Goal=   None    Shift=    0.000
 RMSDP=6.71D-06 MaxDP=2.36D-04 DE=-8.16D-07 OVMax= 2.32D-04

 Cycle  10  Pass 1  IDiag  1:
 RMSU=  1.97D-05    CP:  1.00D+00
 E= -868.338240561393     Delta-E=       -0.000000560025 Rises=F Damp=F
 DIIS: error= 1.78D-05 at cycle   2 NSaved=   2.
 NSaved= 2 IEnMin= 2 EnMin= -868.338240561393     IErMin= 2 ErrMin= 1.78D-05
 ErrMax= 1.78D-05  0.00D+00 EMaxC= 1.00D-01 BMatC= 7.22D-08 BMatP= 4.13D-07
 IDIUse=1 WtCom= 1.00D+00 WtEn= 0.00D+00
 Coeff-Com:  0.121D+00 0.879D+00
 Coeff:      0.121D+00 0.879D+00
 Gap=     0.409 Goal=   None    Shift=    0.000
 RMSDP=1.62D-06 MaxDP=6.81D-05 DE=-5.60D-07 OVMax= 1.26D-04

 Cycle  11  Pass 1  IDiag  1:
 RMSU=  1.37D-06    CP:  1.00D+00  1.04D+00
 E= -868.338240703882     Delta-E=       -0.000000142489 Rises=F Damp=F
 DIIS: error= 1.37D-05 at cycle   3 NSaved=   3.
 NSaved= 3 IEnMin= 3 EnMin= -868.338240703882     IErMin= 3 ErrMin= 1.37D-05
 ErrMax= 1.37D-05  0.00D+00 EMaxC= 1.00D-01 BMatC= 3.76D-08 BMatP= 7.22D-08
 IDIUse=1 WtCom= 1.00D+00 WtEn= 0.00D+00
 Coeff-Com: -0.889D-01 0.354D+00 0.735D+00
 Coeff:     -0.889D-01 0.354D+00 0.735D+00
 Gap=     0.409 Goal=   None    Shift=    0.000
 RMSDP=8.86D-07 MaxDP=3.30D-05 DE=-1.42D-07 OVMax= 8.85D-05

 Cycle  12  Pass 1  IDiag  1:
 RMSU=  7.92D-07    CP:  1.00D+00  1.06D+00  1.16D+00
 E= -868.338240783332     Delta-E=       -0.000000079450 Rises=F Damp=F
 DIIS: error= 9.02D-06 at cycle   4 NSaved=   4.
 NSaved= 4 IEnMin= 4 EnMin= -868.338240783332     IErMin= 4 ErrMin= 9.02D-06
 ErrMax= 9.02D-06  0.00D+00 EMaxC= 1.00D-01 BMatC= 7.86D-09 BMatP= 3.76D-08
 IDIUse=1 WtCom= 1.00D+00 WtEn= 0.00D+00
 Coeff-Com:  0.227D-01-0.611D+00-0.614D+00 0.220D+01
 Coeff:      0.227D-01-0.611D+00-0.614D+00 0.220D+01
 Gap=     0.409 Goal=   None    Shift=    0.000
 RMSDP=1.48D-06 MaxDP=4.52D-05 DE=-7.95D-08 OVMax= 1.79D-04

 Cycle  13  Pass 1  IDiag  1:
 RMSU=  2.68D-07    CP:  1.00D+00  1.07D+00  1.94D+00  2.25D+00
 E= -868.338240841829     Delta-E=       -0.000000058496 Rises=F Damp=F
 DIIS: error= 7.53D-07 at cycle   5 NSaved=   5.
 NSaved= 5 IEnMin= 5 EnMin= -868.338240841829     IErMin= 5 ErrMin= 7.53D-07
 ErrMax= 7.53D-07  0.00D+00 EMaxC= 1.00D-01 BMatC= 2.26D-10 BMatP= 7.86D-09
 IDIUse=1 WtCom= 1.00D+00 WtEn= 0.00D+00
 Coeff-Com:  0.907D-02-0.129D+00-0.152D+00 0.402D+00 0.870D+00
 Coeff:      0.907D-02-0.129D+00-0.152D+00 0.402D+00 0.870D+00
 Gap=     0.409 Goal=   None    Shift=    0.000
 RMSDP=1.30D-07 MaxDP=4.98D-06 DE=-5.85D-08 OVMax= 1.45D-05

 Cycle  14  Pass 1  IDiag  1:
 RMSU=  5.56D-08    CP:  1.00D+00  1.07D+00  1.99D+00  2.35D+00  1.17D+00
 E= -868.338240842518     Delta-E=       -0.000000000689 Rises=F Damp=F
 DIIS: error= 2.63D-07 at cycle   6 NSaved=   6.
 NSaved= 6 IEnMin= 6 EnMin= -868.338240842518     IErMin= 6 ErrMin= 2.63D-07
 ErrMax= 2.63D-07  0.00D+00 EMaxC= 1.00D-01 BMatC= 2.88D-11 BMatP= 2.26D-10
 IDIUse=1 WtCom= 1.00D+00 WtEn= 0.00D+00
 Coeff-Com: -0.410D-02 0.936D-01 0.966D-01-0.327D+00-0.122D+00 0.126D+01
 Coeff:     -0.410D-02 0.936D-01 0.966D-01-0.327D+00-0.122D+00 0.126D+01
 Gap=     0.409 Goal=   None    Shift=    0.000
 RMSDP=5.38D-08 MaxDP=1.70D-06 DE=-6.89D-10 OVMax= 4.04D-06

 Cycle  15  Pass 1  IDiag  1:
 RMSU=  2.91D-08    CP:  1.00D+00  1.07D+00  1.99D+00  2.37D+00  1.30D+00
                    CP:  1.42D+00
 E= -868.338240842610     Delta-E=       -0.000000000091 Rises=F Damp=F
 DIIS: error= 9.97D-08 at cycle   7 NSaved=   7.
 NSaved= 7 IEnMin= 7 EnMin= -868.338240842610     IErMin= 7 ErrMin= 9.97D-08
 ErrMax= 9.97D-08  0.00D+00 EMaxC= 1.00D-01 BMatC= 4.42D-12 BMatP= 2.88D-11
 IDIUse=1 WtCom= 1.00D+00 WtEn= 0.00D+00
 Coeff-Com: -0.224D-02 0.436D-01 0.467D-01-0.147D+00-0.122D+00 0.406D+00
 Coeff-Com:  0.775D+00
 Coeff:     -0.224D-02 0.436D-01 0.467D-01-0.147D+00-0.122D+00 0.406D+00
 Coeff:      0.775D+00
 Gap=     0.409 Goal=   None    Shift=    0.000
 RMSDP=1.16D-08 MaxDP=4.16D-07 DE=-9.14D-11 OVMax= 8.88D-07

 Cycle  16  Pass 1  IDiag  1:
 RMSU=  7.11D-09    CP:  1.00D+00  1.07D+00  1.99D+00  2.37D+00  1.32D+00
                    CP:  1.54D+00  1.15D+00
 E= -868.338240842627     Delta-E=       -0.000000000018 Rises=F Damp=F
 DIIS: error= 3.27D-08 at cycle   8 NSaved=   8.
 NSaved= 8 IEnMin= 8 EnMin= -868.338240842627     IErMin= 8 ErrMin= 3.27D-08
 ErrMax= 3.27D-08  0.00D+00 EMaxC= 1.00D-01 BMatC= 3.24D-13 BMatP= 4.42D-12
 IDIUse=1 WtCom= 1.00D+00 WtEn= 0.00D+00
 Coeff-Com:  0.291D-05-0.157D-02-0.129D-02 0.645D-02-0.918D-02-0.585D-01
 Coeff-Com:  0.165D+00 0.899D+00
 Coeff:      0.291D-05-0.157D-02-0.129D-02 0.645D-02-0.918D-02-0.585D-01
 Coeff:      0.165D+00 0.899D+00
 Gap=     0.409 Goal=   None    Shift=    0.000
 RMSDP=3.80D-09 MaxDP=1.00D-07 DE=-1.77D-11 OVMax= 2.77D-07

 SCF Done:  E(RHF) =  -868.338240843     A.U. after   16 cycles
            NFock= 16  Conv=0.38D-08     -V/T= 2.0030
 KE= 8.657169848585D+02 PE=-4.396184082683D+03 EE= 1.480337215285D+03
 Leave Link  502 at Wed May  5 21:05:24 2021, MaxMem=   524288000 cpu:             149.5 elap:              76.7
 (Enter /opt/gaussian/g16_legacy/l801.exe)
 ExpMin= 1.61D-01 ExpMax= 5.48D+03 ExpMxC= 8.25D+02 IAcc=3 IRadAn=         5 AccDes= 0.00D+00
 HarFok:  IExCor=  205 AccDes= 0.00D+00 IRadAn=         5 IDoV=-2 UseB2=F ITyADJ=14
 ICtDFT= 12500011 ScaDFX=  1.000000  1.000000  1.000000  1.000000
 Largest valence mixing into a core orbital is  1.94D-04
 Largest core mixing into a valence orbital is  4.01D-05
 Range of M.O.s used for correlation:    19   290
 NBasis=   290 NAE=    64 NBE=    64 NFC=    18 NFV=     0
 NROrb=    272 NOA=    46 NOB=    46 NVA=   226 NVB=   226
 Leave Link  801 at Wed May  5 21:05:25 2021, MaxMem=   524288000 cpu:               1.8 elap:               1.1
 (Enter /opt/gaussian/g16_legacy/l906.exe)
 FulOut=F Deriv=F AODrv=F NAtomX=    28
   MMem=          85  MDisk=          46 MDiskD=          46
  W3Min=     3014840 MinDsk=     3114491 NBas6D=         290
 NBas2D=       42681    NTT=       42195    LW2=     2000000
    MDV=   523917504 MDiskM=       24996 NBas2p=       30839
 Fully direct method using O(OVN) memory.
 IMap=   1   2   3   4   5   6   7   8   9  10  11  12  13  14  15  16  17  18  19  20
 IMap=  21  22  23  24  25  26  27  28  29  30  31  32  33  34  35  36  37  38  39  40
 IMap=  41  42  43  44  45  46
 JobTyp=1 Pass  1:  I=   1 to  46 NPSUse=  2 ParTrn=T ParDer=T DoDerP=F.
 Spin components of T(2) and E(2):
     alpha-alpha T2 =       0.1273804306D+00 E2=     -0.3602461899D+00
     alpha-beta  T2 =       0.6483537532D+00 E2=     -0.1882168200D+01
     beta-beta   T2 =       0.1273804306D+00 E2=     -0.3602461899D+00
 The integrals were generated   1 times.
 ANorm=    0.1379534202D+01
 E2 =    -0.2602660579D+01 EUMP2 =    -0.87094090142197D+03
 Leave Link  906 at Wed May  5 21:07:17 2021, MaxMem=   524288000 cpu:             222.1 elap:             112.6
 (Enter /opt/gaussian/g16_legacy/l601.exe)
 Copying SCF densities to generalized density rwf, IOpCl= 0 IROHF=0.

 **********************************************************************

            Population analysis using the SCF density.

 **********************************************************************

 Orbital symmetries:
       Occupied  (A) (A) (A) (A) (A) (A) (A) (A) (A) (A) (A) (A)
                 (A) (A) (A) (A) (A) (A) (A) (A) (A) (A) (A) (A)
                 (A) (A) (A) (A) (A) (A) (A) (A) (A) (A) (A) (A)
                 (A) (A) (A) (A) (A) (A) (A) (A) (A) (A) (A) (A)
                 (A) (A) (A) (A) (A) (A) (A) (A) (A) (A) (A) (A)
                 (A) (A) (A) (A)
       Virtual   (A) (A) (A) (A) (A) (A) (A) (A) (A) (A) (A) (A)
                 (A) (A) (A) (A) (A) (A) (A) (A) (A) (A) (A) (A)
                 (A) (A) (A) (A) (A) (A) (A) (A) (A) (A) (A) (A)
                 (A) (A) (A) (A) (A) (A) (A) (A) (A) (A) (A) (A)
                 (A) (A) (A) (A) (A) (A) (A) (A) (A) (A) (A) (A)
                 (A) (A) (A) (A) (A) (A) (A) (A) (A) (A) (A) (A)
                 (A) (A) (A) (A) (A) (A) (A) (A) (A) (A) (A) (A)
                 (A) (A) (A) (A) (A) (A) (A) (A) (A) (A) (A) (A)
                 (A) (A) (A) (A) (A) (A) (A) (A) (A) (A) (A) (A)
                 (A) (A) (A) (A) (A) (A) (A) (A) (A) (A) (A) (A)
                 (A) (A) (A) (A) (A) (A) (A) (A) (A) (A) (A) (A)
                 (A) (A) (A) (A) (A) (A) (A) (A) (A) (A) (A) (A)
                 (A) (A) (A) (A) (A) (A) (A) (A) (A) (A) (A) (A)
                 (A) (A) (A) (A) (A) (A) (A) (A) (A) (A) (A) (A)
                 (A) (A) (A) (A) (A) (A) (A) (A) (A) (A) (A) (A)
                 (A) (A) (A) (A) (A) (A) (A) (A) (A) (A) (A) (A)
                 (A) (A) (A) (A) (A) (A) (A) (A) (A) (A) (A) (A)
                 (A) (A) (A) (A) (A) (A) (A) (A) (A) (A) (A) (A)
                 (A) (A) (A) (A) (A) (A) (A) (A) (A) (A)
 The electronic state is 1-A.
 Alpha  occ. eigenvalues --  -20.61332 -20.61286 -20.61157 -20.61136 -15.86356
 Alpha  occ. eigenvalues --  -15.86205 -11.31655 -11.31543 -11.28284 -11.28130
 Alpha  occ. eigenvalues --  -11.28121 -11.27979 -11.27849 -11.27813 -11.27277
 Alpha  occ. eigenvalues --  -11.27102 -11.27065 -11.27060  -1.60386  -1.60224
 Alpha  occ. eigenvalues --   -1.39945  -1.39775  -1.19847  -1.19713  -1.09187
 Alpha  occ. eigenvalues --   -1.09156  -1.05252  -1.05062  -0.96054  -0.95956
 Alpha  occ. eigenvalues --   -0.86576  -0.86507  -0.82870  -0.82789  -0.77962
 Alpha  occ. eigenvalues --   -0.77829  -0.72586  -0.72413  -0.71710  -0.71554
 Alpha  occ. eigenvalues --   -0.70886  -0.70780  -0.65451  -0.65371  -0.65169
 Alpha  occ. eigenvalues --   -0.65067  -0.62586  -0.62433  -0.55658  -0.55602
 Alpha  occ. eigenvalues --   -0.53690  -0.53436  -0.53227  -0.53001  -0.49341
 Alpha  occ. eigenvalues --   -0.49316  -0.49180  -0.49168  -0.45389  -0.45163
 Alpha  occ. eigenvalues --   -0.37870  -0.37709  -0.36977  -0.36458
 Alpha virt. eigenvalues --    0.04429   0.04740   0.10728   0.10951   0.15920
 Alpha virt. eigenvalues --    0.16246   0.20610   0.21674   0.26147   0.27702
 Alpha virt. eigenvalues --    0.28162   0.28203   0.30735   0.31036   0.32258
 Alpha virt. eigenvalues --    0.32771   0.33576   0.34263   0.36320   0.36618
 Alpha virt. eigenvalues --    0.42544   0.43123   0.43881   0.44257   0.45632
 Alpha virt. eigenvalues --    0.46099   0.48579   0.48982   0.50502   0.50949
 Alpha virt. eigenvalues --    0.55660   0.56526   0.66648   0.66948   0.68028
 Alpha virt. eigenvalues --    0.68482   0.69400   0.69989   0.71231   0.73354
 Alpha virt. eigenvalues --    0.74292   0.77287   0.77356   0.77817   0.78363
 Alpha virt. eigenvalues --    0.78542   0.79212   0.79399   0.80020   0.80241
 Alpha virt. eigenvalues --    0.80709   0.81425   0.83973   0.84906   0.85332
 Alpha virt. eigenvalues --    0.85837   0.86306   0.86798   0.90811   0.92879
 Alpha virt. eigenvalues --    0.93326   0.93670   0.96768   0.98830   0.99709
 Alpha virt. eigenvalues --    1.01484   1.01736   1.02300   1.04136   1.04725
 Alpha virt. eigenvalues --    1.06411   1.06986   1.07986   1.08056   1.08438
 Alpha virt. eigenvalues --    1.08622   1.10365   1.13200   1.14638   1.14950
 Alpha virt. eigenvalues --    1.15689   1.16872   1.18818   1.19194   1.19527
 Alpha virt. eigenvalues --    1.21141   1.22747   1.23172   1.23580   1.24578
 Alpha virt. eigenvalues --    1.27660   1.27836   1.28266   1.28581   1.29488
 Alpha virt. eigenvalues --    1.30745   1.31073   1.32636   1.33757   1.36903
 Alpha virt. eigenvalues --    1.39999   1.41600   1.45815   1.46631   1.46749
 Alpha virt. eigenvalues --    1.47015   1.52072   1.52182   1.52969   1.53990
 Alpha virt. eigenvalues --    1.59803   1.60659   1.64918   1.64989   1.65404
 Alpha virt. eigenvalues --    1.66634   1.66713   1.66802   1.67231   1.70095
 Alpha virt. eigenvalues --    1.72176   1.72240   1.72778   1.72967   1.73243
 Alpha virt. eigenvalues --    1.73528   1.75088   1.75199   1.96511   1.96791
 Alpha virt. eigenvalues --    1.98869   1.99007   1.99383   1.99578   2.03823
 Alpha virt. eigenvalues --    2.04206   2.04318   2.05321   2.09496   2.09699
 Alpha virt. eigenvalues --    2.11737   2.11955   2.12852   2.14640   2.21099
 Alpha virt. eigenvalues --    2.21311   2.21582   2.21678   2.24329   2.24444
 Alpha virt. eigenvalues --    2.26748   2.27499   2.32416   2.32962   2.36010
 Alpha virt. eigenvalues --    2.36195   2.37433   2.37609   2.42564   2.42675
 Alpha virt. eigenvalues --    2.42724   2.43125   2.43759   2.45241   2.45306
 Alpha virt. eigenvalues --    2.45919   2.46486   2.47222   2.57574   2.58032
 Alpha virt. eigenvalues --    2.58284   2.58312   2.59322   2.59350   2.69766
 Alpha virt. eigenvalues --    2.70410   2.80891   2.81632   2.83019   2.83114
 Alpha virt. eigenvalues --    2.90626   2.91523   2.91545   2.91724   2.91922
 Alpha virt. eigenvalues --    2.93441   2.99444   2.99549   3.04223   3.04295
 Alpha virt. eigenvalues --    3.04317   3.04685   3.06540   3.06848   3.10336
 Alpha virt. eigenvalues --    3.10756   3.23028   3.23259   3.24163   3.24236
 Alpha virt. eigenvalues --    3.27214   3.27288   3.42640   3.42754   3.52473
 Alpha virt. eigenvalues --    3.52657   3.76542   3.76760   4.12636   4.12716
 Alpha virt. eigenvalues --    4.28180   4.28262   4.37418   4.37547   4.47440
 Alpha virt. eigenvalues --    4.49352   4.51243   4.51517   4.52789   4.57139
 Alpha virt. eigenvalues --    4.71558   4.72747   4.76300   4.77270   5.08600
 Alpha virt. eigenvalues --    5.08900
          Condensed to atoms (all electrons):
               1          2          3          4          5          6
     1  C    4.890981   0.538398  -0.046959  -0.028405  -0.046388   0.541694
     2  C    0.538398   4.950540   0.520025  -0.042083  -0.029284  -0.046665
     3  C   -0.046959   0.520025   4.932082   0.547899  -0.053626  -0.029438
     4  C   -0.028405  -0.042083   0.547899   4.823715   0.547939  -0.040508
     5  C   -0.046388  -0.029284  -0.053626   0.547939   4.922161   0.520728
     6  C    0.541694  -0.046665  -0.029438  -0.040508   0.520728   4.928413
     7  H    0.381468  -0.028913   0.002156   0.000195   0.002155  -0.026039
     8  H   -0.027208   0.382761  -0.028358   0.001598   0.000178   0.002351
     9  H    0.001905  -0.024875   0.368892  -0.019190   0.002577  -0.000077
    10  H    0.001938  -0.000059   0.002548  -0.020013   0.368502  -0.023438
    11  H   -0.026239   0.002325   0.000189   0.001563  -0.027033   0.382120
    12  N   -0.000008   0.001498  -0.044953   0.244082  -0.044322   0.001509
    13  O   -0.000004  -0.000027   0.003729  -0.087818   0.004007   0.000770
    14  O   -0.000003   0.000788   0.004263  -0.088328   0.003689  -0.000028
    15  C    0.000003   0.000018   0.000008   0.000000  -0.000000   0.000000
    16  C   -0.000001  -0.001007  -0.000630  -0.000031   0.000003   0.000006
    17  C   -0.002244  -0.000990   0.000382   0.000061  -0.000092  -0.000998
    18  C    0.000005   0.000156   0.000024   0.000002  -0.000003  -0.000033
    19  C   -0.000000  -0.000002  -0.000000   0.000000   0.000000   0.000000
    20  C   -0.000000   0.000000   0.000000  -0.000000  -0.000000  -0.000000
    21  H    0.000000  -0.000000  -0.000000  -0.000000   0.000000   0.000000
    22  H    0.000002   0.001832   0.001831   0.000053  -0.000021  -0.000040
    23  H    0.003557  -0.000612  -0.000524  -0.000128   0.000409   0.002091
    24  H    0.000000  -0.000000  -0.000000  -0.000000   0.000000   0.000000
    25  H   -0.000000   0.000000   0.000000   0.000000  -0.000000  -0.000000
    26  N    0.000020  -0.000003  -0.000000  -0.000000   0.000000   0.000016
    27  O   -0.000000  -0.000000  -0.000000   0.000000  -0.000000   0.000000
    28  O    0.000008  -0.000000   0.000000   0.000000  -0.000003   0.000066
               7          8          9         10         11         12
     1  C    0.381468  -0.027208   0.001905   0.001938  -0.026239  -0.000008
     2  C   -0.028913   0.382761  -0.024875  -0.000059   0.002325   0.001498
     3  C    0.002156  -0.028358   0.368892   0.002548   0.000189  -0.044953
     4  C    0.000195   0.001598  -0.019190  -0.020013   0.001563   0.244082
     5  C    0.002155   0.000178   0.002577   0.368502  -0.027033  -0.044322
     6  C   -0.026039   0.002351  -0.000077  -0.023438   0.382120   0.001509
     7  H    0.435323  -0.001174  -0.000069  -0.000068  -0.001172   0.000002
     8  H   -0.001174   0.445801  -0.001118   0.000007  -0.000090  -0.000048
     9  H   -0.000069  -0.001118   0.394464  -0.000075   0.000007  -0.005398
    10  H   -0.000068   0.000007  -0.000075   0.388713  -0.001077  -0.005303
    11  H   -0.001172  -0.000090   0.000007  -0.001077   0.433289  -0.000048
    12  N    0.000002  -0.000048  -0.005398  -0.005303  -0.000048   5.735108
    13  O    0.000000   0.000000   0.000049   0.008921  -0.000001   0.315333
    14  O    0.000000  -0.000001   0.009198   0.000048   0.000000   0.314406
    15  C    0.000000   0.000005  -0.000000   0.000000   0.000000  -0.000000
    16  C    0.000004   0.000408  -0.000003   0.000000   0.000000  -0.000000
    17  C    0.000077   0.000146  -0.000002  -0.000000  -0.000011  -0.000000
    18  C    0.000010  -0.000008   0.000000  -0.000000  -0.000000  -0.000000
    19  C   -0.000000  -0.000001   0.000000   0.000000  -0.000000  -0.000000
    20  C   -0.000000  -0.000000  -0.000000  -0.000000  -0.000000  -0.000000
    21  H    0.000000  -0.000000  -0.000000   0.000000   0.000000   0.000000
    22  H   -0.000001   0.000038   0.000087  -0.000000  -0.000000  -0.000001
    23  H   -0.000094  -0.000016   0.000002   0.000002   0.000021  -0.000001
    24  H    0.000000   0.000000   0.000000   0.000000   0.000000   0.000000
    25  H   -0.000000   0.000000  -0.000000  -0.000000  -0.000000   0.000000
    26  N    0.000002  -0.000000  -0.000000  -0.000000   0.000000   0.000000
    27  O   -0.000000   0.000000  -0.000000   0.000000   0.000000   0.000000
    28  O    0.000209  -0.000000   0.000000  -0.000000   0.000041   0.000000
              13         14         15         16         17         18
     1  C   -0.000004  -0.000003   0.000003  -0.000001  -0.002244   0.000005
     2  C   -0.000027   0.000788   0.000018  -0.001007  -0.000990   0.000156
     3  C    0.003729   0.004263   0.000008  -0.000630   0.000382   0.000024
     4  C   -0.087818  -0.088328   0.000000  -0.000031   0.000061   0.000002
     5  C    0.004007   0.003689  -0.000000   0.000003  -0.000092  -0.000003
     6  C    0.000770  -0.000028   0.000000   0.000006  -0.000998  -0.000033
     7  H    0.000000   0.000000   0.000000   0.000004   0.000077   0.000010
     8  H    0.000000  -0.000001   0.000005   0.000408   0.000146  -0.000008
     9  H    0.000049   0.009198  -0.000000  -0.000003  -0.000002   0.000000
    10  H    0.008921   0.000048   0.000000   0.000000  -0.000000  -0.000000
    11  H   -0.000001   0.000000   0.000000   0.000000  -0.000011  -0.000000
    12  N    0.315333   0.314406  -0.000000  -0.000000  -0.000000  -0.000000
    13  O    8.299684  -0.087619   0.000000   0.000000  -0.000000  -0.000000
    14  O   -0.087619   8.305390  -0.000000   0.000000  -0.000000  -0.000000
    15  C    0.000000  -0.000000   4.879068   0.539573  -0.045017  -0.029199
    16  C    0.000000   0.000000   0.539573   4.943971   0.520893  -0.037277
    17  C   -0.000000  -0.000000  -0.045017   0.520893   4.944797   0.539976
    18  C   -0.000000  -0.000000  -0.029199  -0.037277   0.539976   4.834111
    19  C   -0.000000  -0.000000  -0.045335  -0.030781  -0.051530   0.546090
    20  C    0.000000   0.000000   0.541272  -0.043103  -0.030823  -0.039754
    21  H    0.000000   0.000000   0.381207  -0.027947   0.002226   0.000207
    22  H   -0.000000  -0.000001  -0.027675   0.379601  -0.027491   0.001858
    23  H   -0.000000   0.000000   0.001947  -0.023089   0.364074  -0.021710
    24  H    0.000000   0.000000   0.001951  -0.000081   0.002576  -0.019926
    25  H    0.000000   0.000000  -0.027616   0.002328   0.000186   0.001564
    26  N    0.000000   0.000000  -0.000005   0.001560  -0.044828   0.244201
    27  O   -0.000000  -0.000000  -0.000003  -0.000029   0.003665  -0.087674
    28  O    0.000000   0.000000  -0.000006   0.000806   0.003844  -0.087733
              19         20         21         22         23         24
     1  C   -0.000000  -0.000000   0.000000   0.000002   0.003557   0.000000
     2  C   -0.000002   0.000000  -0.000000   0.001832  -0.000612  -0.000000
     3  C   -0.000000   0.000000  -0.000000   0.001831  -0.000524  -0.000000
     4  C    0.000000  -0.000000  -0.000000   0.000053  -0.000128  -0.000000
     5  C    0.000000  -0.000000   0.000000  -0.000021   0.000409   0.000000
     6  C    0.000000  -0.000000   0.000000  -0.000040   0.002091   0.000000
     7  H   -0.000000  -0.000000   0.000000  -0.000001  -0.000094   0.000000
     8  H   -0.000001  -0.000000  -0.000000   0.000038  -0.000016   0.000000
     9  H    0.000000  -0.000000  -0.000000   0.000087   0.000002   0.000000
    10  H    0.000000  -0.000000   0.000000  -0.000000   0.000002   0.000000
    11  H   -0.000000  -0.000000   0.000000  -0.000000   0.000021   0.000000
    12  N   -0.000000  -0.000000   0.000000  -0.000001  -0.000001   0.000000
    13  O   -0.000000   0.000000   0.000000  -0.000000  -0.000000   0.000000
    14  O   -0.000000   0.000000   0.000000  -0.000001   0.000000   0.000000
    15  C   -0.045335   0.541272   0.381207  -0.027675   0.001947   0.001951
    16  C   -0.030781  -0.043103  -0.027947   0.379601  -0.023089  -0.000081
    17  C   -0.051530  -0.030823   0.002226  -0.027491   0.364074   0.002576
    18  C    0.546090  -0.039754   0.000207   0.001858  -0.021710  -0.019926
    19  C    4.919487   0.523172   0.002177   0.000168   0.002505   0.368666
    20  C    0.523172   4.933175  -0.027892   0.002349  -0.000086  -0.023952
    21  H    0.002177  -0.027892   0.445590  -0.001194  -0.000068  -0.000070
    22  H    0.000168   0.002349  -0.001194   0.447202  -0.001392   0.000007
    23  H    0.002505  -0.000086  -0.000068  -0.001392   0.383153  -0.000072
    24  H    0.368666  -0.023952  -0.000070   0.000007  -0.000072   0.392479
    25  H   -0.027308   0.382638  -0.001190  -0.000092   0.000007  -0.001113
    26  N   -0.044673   0.001538   0.000002  -0.000049  -0.005163  -0.005366
    27  O    0.003922   0.000766   0.000000   0.000000   0.000040   0.008959
    28  O    0.003717  -0.000025  -0.000000   0.000001   0.008147   0.000045
              25         26         27         28
     1  C   -0.000000   0.000020  -0.000000   0.000008
     2  C    0.000000  -0.000003  -0.000000  -0.000000
     3  C    0.000000  -0.000000  -0.000000   0.000000
     4  C    0.000000  -0.000000   0.000000   0.000000
     5  C   -0.000000   0.000000  -0.000000  -0.000003
     6  C   -0.000000   0.000016   0.000000   0.000066
     7  H   -0.000000   0.000002  -0.000000   0.000209
     8  H    0.000000  -0.000000   0.000000  -0.000000
     9  H   -0.000000  -0.000000  -0.000000   0.000000
    10  H   -0.000000  -0.000000   0.000000  -0.000000
    11  H   -0.000000   0.000000   0.000000   0.000041
    12  N    0.000000   0.000000   0.000000   0.000000
    13  O    0.000000   0.000000  -0.000000   0.000000
    14  O    0.000000   0.000000  -0.000000   0.000000
    15  C   -0.027616  -0.000005  -0.000003  -0.000006
    16  C    0.002328   0.001560  -0.000029   0.000806
    17  C    0.000186  -0.044828   0.003665   0.003844
    18  C    0.001564   0.244201  -0.087674  -0.087733
    19  C   -0.027308  -0.044673   0.003922   0.003717
    20  C    0.382638   0.001538   0.000766  -0.000025
    21  H   -0.001190   0.000002   0.000000  -0.000000
    22  H   -0.000092  -0.000049   0.000000   0.000001
    23  H    0.000007  -0.005163   0.000040   0.008147
    24  H   -0.001113  -0.005366   0.008959   0.000045
    25  H    0.446093  -0.000049  -0.000001   0.000000
    26  N   -0.000049   5.735035   0.315548   0.314040
    27  O   -0.000001   0.315548   8.300268  -0.087427
    28  O    0.000000   0.314040  -0.087427   8.311568
 Mulliken charges:
               1
     1  C   -0.182518
     2  C   -0.223821
     3  C   -0.179541
     4  C    0.159397
     5  C   -0.171579
     6  C   -0.212502
     7  H    0.235929
     8  H    0.224728
     9  H    0.273626
    10  H    0.279356
    11  H    0.236115
    12  N    0.488144
    13  O   -0.457026
    14  O   -0.461801
    15  C   -0.170195
    16  C   -0.225176
    17  C   -0.178876
    18  C    0.155112
    19  C   -0.170275
    20  C   -0.219275
    21  H    0.226955
    22  H    0.222929
    23  H    0.287000
    24  H    0.275898
    25  H    0.224553
    26  N    0.488174
    27  O   -0.458033
    28  O   -0.467298
 Sum of Mulliken charges =  -0.00000
 Mulliken charges with hydrogens summed into heavy atoms:
               1
     1  C    0.053411
     2  C    0.000907
     3  C    0.094085
     4  C    0.159397
     5  C    0.107777
     6  C    0.023613
    12  N    0.488144
    13  O   -0.457026
    14  O   -0.461801
    15  C    0.056760
    16  C   -0.002247
    17  C    0.108125
    18  C    0.155112
    19  C    0.105623
    20  C    0.005278
    26  N    0.488174
    27  O   -0.458033
    28  O   -0.467298
 Electronic spatial extent (au):  <R**2>=           6217.5851
 Charge=             -0.0000 electrons
 Dipole moment (field-independent basis, Debye):
    X=              2.9986    Y=              2.7602    Z=              3.5367  Tot=              5.3961
 Quadrupole moment (field-independent basis, Debye-Ang):
   XX=           -127.4689   YY=           -101.2887   ZZ=           -104.9000
   XY=             23.7625   XZ=             -6.6941   YZ=              0.2142
 Traceless Quadrupole moment (field-independent basis, Debye-Ang):
   XX=            -16.2497   YY=              9.9305   ZZ=              6.3192
   XY=             23.7625   XZ=             -6.6941   YZ=              0.2142
 Octapole moment (field-independent basis, Debye-Ang**2):
  XXX=            136.1668  YYY=             18.8712  ZZZ=             -5.0778  XYY=             -8.7175
  XXY=             29.1769  XXZ=             43.5662  XZZ=              6.9419  YZZ=             -7.7881
  YYZ=              8.9679  XYZ=            -15.9421
 Hexadecapole moment (field-independent basis, Debye-Ang**3):
 XXXX=          -6612.8432 YYYY=          -1393.6394 ZZZZ=           -519.0024 XXXY=            356.3994
 XXXZ=           -175.1587 YYYX=            113.8052 YYYZ=             11.1228 ZZZX=             18.9194
 ZZZY=             11.7528 XXYY=          -1324.2408 XXZZ=          -1197.8135 YYZZ=           -338.0097
 XXYZ=             11.9721 YYXZ=             26.3653 ZZXY=            -54.1151
 N-N= 1.181791641697D+03 E-N=-4.396184084818D+03  KE= 8.657169848585D+02
 Leave Link  601 at Wed May  5 21:07:18 2021, MaxMem=   524288000 cpu:               0.6 elap:               0.6
 (Enter /opt/gaussian/g16_legacy/l9999.exe)
 1\1\GINC-TRUENO90\SP\RMP2-FC\6-31G(d)\C12H10N2O4\JRAMOS\05-May-2021\0\
 \#p 6-31g* mp2\\Input file generated by CHIRIPA (05-May-2021 14:57:25)
 \\0,1\C,0,1.914143,0.,0.\C,0,1.214143,1.211,0.\C,0,-0.183857,1.223,0.\
 C,0,-0.852857,0.,0.\C,0,-0.183857,-1.223,0.\C,0,1.214143,-1.211,0.\H,0
 ,3.000143,0.,0.\H,0,1.755143,2.153,0.\H,0,-0.750857,2.146,0.\H,0,-0.75
 0857,-2.146,0.\H,0,1.755143,-2.153,0.\N,0,-2.332857,0.,0.\O,0,-2.89885
 7,-1.091,0.\O,0,-2.898857,1.091,0.\C,0,2.147364,3.229189,-4.554965\C,0
 ,1.676293,2.312247,-3.60954\C,0,2.260414,1.047252,-3.494917\C,0,3.3185
 39,0.731029,-4.345602\C,0,3.810336,1.622807,-5.297525\C,0,3.211007,2.8
 82155,-5.394461\H,0,1.687698,4.209674,-4.637137\H,0,0.850403,2.579027,
 -2.956257\H,0,1.915541,0.318155,-2.7718\H,0,4.635191,1.328082,-5.93483
 9\H,0,3.578924,3.592248,-6.129613\N,0,3.944972,-0.605175,-4.233618\O,0
 ,4.875858,-0.859466,-4.994817\O,0,3.493222,-1.372901,-3.386767\\Versio
 n=EM64L-G16RevA.03\State=1-A\HF=-868.3382408\MP2=-870.9409014\RMSD=3.7
 96e-09\PG=C01 [X(C12H10N2O4)]\\@


 FIREWORKS ENDED
 AND SPECTATORS GONE AWAY....
 AH, HOW VAST AND DARK
                     SHIKI
 Job cpu time:       0 days  0 hours  6 minutes 31.2 seconds.
 Elapsed time:       0 days  0 hours  3 minutes 20.7 seconds.
 File lengths (MBytes):  RWF=     50 Int=      0 D2E=      0 Chk=      7 Scr=      1
 Normal termination of Gaussian 16 at Wed May  5 21:07:19 2021.
