 Entering Gaussian System, Link 0=/opt/gaussian/g16_legacy/g16
 Input=gaussian_00939_2_1.com
 Output=gaussian_00939_2_1.log
 Initial command:
 /opt/gaussian/g16_legacy/l1.exe "/scratch-local/jramos/2596783/Gau-14126.inp" -scrdir="/scratch-local/jramos/2596783/"
 Entering Link 1 = /opt/gaussian/g16_legacy/l1.exe PID=     14127.
  
 Copyright (c) 1988,1990,1992,1993,1995,1998,2003,2009,2016,
            Gaussian, Inc.  All Rights Reserved.
  
 This is part of the Gaussian(R) 16 program.  It is based on
 the Gaussian(R) 09 system (copyright 2009, Gaussian, Inc.),
 the Gaussian(R) 03 system (copyright 2003, Gaussian, Inc.),
 the Gaussian(R) 98 system (copyright 1998, Gaussian, Inc.),
 the Gaussian(R) 94 system (copyright 1995, Gaussian, Inc.),
 the Gaussian 92(TM) system (copyright 1992, Gaussian, Inc.),
 the Gaussian 90(TM) system (copyright 1990, Gaussian, Inc.),
 the Gaussian 88(TM) system (copyright 1988, Gaussian, Inc.),
 the Gaussian 86(TM) system (copyright 1986, Carnegie Mellon
 University), and the Gaussian 82(TM) system (copyright 1983,
 Carnegie Mellon University). Gaussian is a federally registered
 trademark of Gaussian, Inc.
  
 This software contains proprietary and confidential information,
 including trade secrets, belonging to Gaussian, Inc.
  
 This software is provided under written license and may be
 used, copied, transmitted, or stored only in accord with that
 written license.
  
 The following legend is applicable only to US Government
 contracts under FAR:
  
                    RESTRICTED RIGHTS LEGEND
  
 Use, reproduction and disclosure by the US Government is
 subject to restrictions as set forth in subparagraphs (a)
 and (c) of the Commercial Computer Software - Restricted
 Rights clause in FAR 52.227-19.
  
 Gaussian, Inc.
 340 Quinnipiac St., Bldg. 40, Wallingford CT 06492
  
  
 ---------------------------------------------------------------
 Warning -- This program may not be used in any manner that
 competes with the business of Gaussian, Inc. or will provide
 assistance to any competitor of Gaussian, Inc.  The licensee
 of this program is prohibited from giving any competitor of
 Gaussian, Inc. access to this program.  By using this program,
 the user acknowledges that Gaussian, Inc. is engaged in the
 business of creating and licensing software in the field of
 computational chemistry and represents and warrants to the
 licensee that it is not a competitor of Gaussian, Inc. and that
 it will not use this program in any manner prohibited above.
 ---------------------------------------------------------------
  

 Cite this work as:
 Gaussian 16, Revision A.03,
 M. J. Frisch, G. W. Trucks, H. B. Schlegel, G. E. Scuseria, 
 M. A. Robb, J. R. Cheeseman, G. Scalmani, V. Barone, 
 G. A. Petersson, H. Nakatsuji, X. Li, M. Caricato, A. V. Marenich, 
 J. Bloino, B. G. Janesko, R. Gomperts, B. Mennucci, H. P. Hratchian, 
 J. V. Ortiz, A. F. Izmaylov, J. L. Sonnenberg, D. Williams-Young, 
 F. Ding, F. Lipparini, F. Egidi, J. Goings, B. Peng, A. Petrone, 
 T. Henderson, D. Ranasinghe, V. G. Zakrzewski, J. Gao, N. Rega, 
 G. Zheng, W. Liang, M. Hada, M. Ehara, K. Toyota, R. Fukuda, 
 J. Hasegawa, M. Ishida, T. Nakajima, Y. Honda, O. Kitao, H. Nakai, 
 T. Vreven, K. Throssell, J. A. Montgomery, Jr., J. E. Peralta, 
 F. Ogliaro, M. J. Bearpark, J. J. Heyd, E. N. Brothers, K. N. Kudin, 
 V. N. Staroverov, T. A. Keith, R. Kobayashi, J. Normand, 
 K. Raghavachari, A. P. Rendell, J. C. Burant, S. S. Iyengar, 
 J. Tomasi, M. Cossi, J. M. Millam, M. Klene, C. Adamo, R. Cammi, 
 J. W. Ochterski, R. L. Martin, K. Morokuma, O. Farkas, 
 J. B. Foresman, and D. J. Fox, Gaussian, Inc., Wallingford CT, 2016.
 
 ******************************************
 Gaussian 16:  EM64L-G16RevA.03 25-Dec-2016
                 6-May-2021 
 ******************************************
 %chk=gaussian_00939_2_1.chk
 %nproc=2
 Will use up to    2 processors via shared memory.
 %mem=4000Mb
 -------------
 #p 6-31g* mp2
 -------------
 1/38=1,172=1/1;
 2/12=2,17=6,18=5,40=1/2;
 3/5=1,6=6,7=1,11=9,25=1,30=1/1,2,3;
 4//1;
 5/5=2,38=5/2;
 8/10=2/1;
 9/16=-3/6;
 6/7=2,8=2,9=2,10=2/1;
 99/5=1,9=1/99;
 Leave Link    1 at Thu May  6 10:47:27 2021, MaxMem=   524288000 cpu:               0.1 elap:               0.3
 (Enter /opt/gaussian/g16_legacy/l101.exe)
 ------------------------------------------------------
 Input file generated by CHIRIPA (05-May-2021 14:55:20)
 ------------------------------------------------------
 Symbolic Z-matrix:
 Charge =  0 Multiplicity = 1
 C                     1.91414   0.        0. 
 C                     1.21414   1.211     0. 
 C                    -0.18386   1.223     0. 
 C                    -0.85286   0.        0. 
 C                    -0.18386  -1.223     0. 
 C                     1.21414  -1.211     0. 
 H                     3.00014   0.        0. 
 H                     1.75514   2.153     0. 
 H                    -0.75086   2.146     0. 
 H                    -0.75086  -2.146     0. 
 H                     1.75514  -2.153     0. 
 N                    -2.33286   0.        0. 
 O                    -2.89886  -1.091     0. 
 O                    -2.89886   1.091     0. 
 C                    -6.43285   3.50497  -0.8288 
 C                    -6.81394   4.61234   0.1543 
 C                    -7.99737   4.23125   1.04426 
 H                    -7.30247   3.2647   -1.45568 
 H                    -6.1911    2.59235  -0.2666 
 H                    -7.05356   5.523    -0.40953 
 H                    -5.94326   4.85014   0.77878 
 H                    -7.76527   3.33715   1.63189 
 H                    -8.88188   4.01383   0.43682 
 H                    -8.25288   5.03714   1.73932 
 C                    -5.25141   3.87104  -1.72541 
 C                    -4.87032   2.76366  -2.70851 
 C                    -3.68688   3.14476  -3.59848 
 H                    -5.49316   4.78366  -2.28762 
 H                    -4.38179   4.11131  -1.09853 
 H                    -5.741     2.52586  -3.333 
 H                    -4.6307    1.85301  -2.14469 
 H                    -2.80238   3.36218  -2.99104 
 H                    -3.91899   4.03886  -4.1861 
 H                    -3.43137   2.33886  -4.29354 
 
 ITRead=  0  0  0  0  0  0  0  0  0  0  0  0  0  0  0  0  0  0  0  0
 ITRead=  0  0  0  0  0  0  0  0  0  0  0  0  0  0
 MicOpt= -1 -1 -1 -1 -1 -1 -1 -1 -1 -1 -1 -1 -1 -1 -1 -1 -1 -1 -1 -1
 MicOpt= -1 -1 -1 -1 -1 -1 -1 -1 -1 -1 -1 -1 -1 -1
 NAtoms=     34 NQM=       34 NQMF=       0 NMMI=      0 NMMIF=      0
                NMic=       0 NMicF=      0.
                    Isotopes and Nuclear Properties:
 (Nuclear quadrupole moments (NQMom) in fm**2, nuclear magnetic moments (NMagM)
  in nuclear magnetons)

  Atom         1           2           3           4           5           6           7           8           9          10
 IAtWgt=          12          12          12          12          12          12           1           1           1           1
 AtmWgt=  12.0000000  12.0000000  12.0000000  12.0000000  12.0000000  12.0000000   1.0078250   1.0078250   1.0078250   1.0078250
 NucSpn=           0           0           0           0           0           0           1           1           1           1
 AtZEff=  -0.0000000  -0.0000000  -0.0000000  -0.0000000  -0.0000000  -0.0000000  -0.0000000  -0.0000000  -0.0000000  -0.0000000
 NQMom=    0.0000000   0.0000000   0.0000000   0.0000000   0.0000000   0.0000000   0.0000000   0.0000000   0.0000000   0.0000000
 NMagM=    0.0000000   0.0000000   0.0000000   0.0000000   0.0000000   0.0000000   2.7928460   2.7928460   2.7928460   2.7928460
 AtZNuc=   6.0000000   6.0000000   6.0000000   6.0000000   6.0000000   6.0000000   1.0000000   1.0000000   1.0000000   1.0000000

  Atom        11          12          13          14          15          16          17          18          19          20
 IAtWgt=           1          14          16          16          12          12          12           1           1           1
 AtmWgt=   1.0078250  14.0030740  15.9949146  15.9949146  12.0000000  12.0000000  12.0000000   1.0078250   1.0078250   1.0078250
 NucSpn=           1           2           0           0           0           0           0           1           1           1
 AtZEff=  -0.0000000  -0.0000000  -0.0000000  -0.0000000  -0.0000000  -0.0000000  -0.0000000  -0.0000000  -0.0000000  -0.0000000
 NQMom=    0.0000000   2.0440000   0.0000000   0.0000000   0.0000000   0.0000000   0.0000000   0.0000000   0.0000000   0.0000000
 NMagM=    2.7928460   0.4037610   0.0000000   0.0000000   0.0000000   0.0000000   0.0000000   2.7928460   2.7928460   2.7928460
 AtZNuc=   1.0000000   7.0000000   8.0000000   8.0000000   6.0000000   6.0000000   6.0000000   1.0000000   1.0000000   1.0000000

  Atom        21          22          23          24          25          26          27          28          29          30
 IAtWgt=           1           1           1           1          12          12          12           1           1           1
 AtmWgt=   1.0078250   1.0078250   1.0078250   1.0078250  12.0000000  12.0000000  12.0000000   1.0078250   1.0078250   1.0078250
 NucSpn=           1           1           1           1           0           0           0           1           1           1
 AtZEff=  -0.0000000  -0.0000000  -0.0000000  -0.0000000  -0.0000000  -0.0000000  -0.0000000  -0.0000000  -0.0000000  -0.0000000
 NQMom=    0.0000000   0.0000000   0.0000000   0.0000000   0.0000000   0.0000000   0.0000000   0.0000000   0.0000000   0.0000000
 NMagM=    2.7928460   2.7928460   2.7928460   2.7928460   0.0000000   0.0000000   0.0000000   2.7928460   2.7928460   2.7928460
 AtZNuc=   1.0000000   1.0000000   1.0000000   1.0000000   6.0000000   6.0000000   6.0000000   1.0000000   1.0000000   1.0000000

  Atom        31          32          33          34
 IAtWgt=           1           1           1           1
 AtmWgt=   1.0078250   1.0078250   1.0078250   1.0078250
 NucSpn=           1           1           1           1
 AtZEff=  -0.0000000  -0.0000000  -0.0000000  -0.0000000
 NQMom=    0.0000000   0.0000000   0.0000000   0.0000000
 NMagM=    2.7928460   2.7928460   2.7928460   2.7928460
 AtZNuc=   1.0000000   1.0000000   1.0000000   1.0000000
 Leave Link  101 at Thu May  6 10:47:27 2021, MaxMem=   524288000 cpu:               0.3 elap:               0.2
 (Enter /opt/gaussian/g16_legacy/l202.exe)
                          Input orientation:                          
 ---------------------------------------------------------------------
 Center     Atomic      Atomic             Coordinates (Angstroms)
 Number     Number       Type             X           Y           Z
 ---------------------------------------------------------------------
      1          6           0        1.914143    0.000000    0.000000
      2          6           0        1.214143    1.211000    0.000000
      3          6           0       -0.183857    1.223000    0.000000
      4          6           0       -0.852857    0.000000    0.000000
      5          6           0       -0.183857   -1.223000    0.000000
      6          6           0        1.214143   -1.211000    0.000000
      7          1           0        3.000143    0.000000    0.000000
      8          1           0        1.755143    2.153000    0.000000
      9          1           0       -0.750857    2.146000    0.000000
     10          1           0       -0.750857   -2.146000    0.000000
     11          1           0        1.755143   -2.153000    0.000000
     12          7           0       -2.332857    0.000000    0.000000
     13          8           0       -2.898857   -1.091000    0.000000
     14          8           0       -2.898857    1.091000    0.000000
     15          6           0       -6.432852    3.504970   -0.828803
     16          6           0       -6.813937    4.612344    0.154295
     17          6           0       -7.997375    4.231249    1.044259
     18          1           0       -7.302468    3.264696   -1.455684
     19          1           0       -6.191099    2.592351   -0.266595
     20          1           0       -7.053561    5.523001   -0.409532
     21          1           0       -5.943256    4.850143    0.778780
     22          1           0       -7.765267    3.337146    1.631886
     23          1           0       -8.881881    4.013827    0.436823
     24          1           0       -8.252884    5.037145    1.739318
     25          6           0       -5.251407    3.871037   -1.725414
     26          6           0       -4.870321    2.763663   -2.708513
     27          6           0       -3.686883    3.144758   -3.598477
     28          1           0       -5.493159    4.783655   -2.287622
     29          1           0       -4.381790    4.111311   -1.098533
     30          1           0       -5.741002    2.525864   -3.332998
     31          1           0       -4.630697    1.853006   -2.144686
     32          1           0       -2.802377    3.362180   -2.991041
     33          1           0       -3.918991    4.038861   -4.186104
     34          1           0       -3.431374    2.338862   -4.293535
 ---------------------------------------------------------------------
                    Distance matrix (angstroms):
                    1          2          3          4          5
     1  C    0.000000
     2  C    1.398757   0.000000
     3  C    2.428443   1.398052   0.000000
     4  C    2.767000   2.395623   1.394019   0.000000
     5  C    2.428443   2.806913   2.446000   1.394019   0.000000
     6  C    1.398757   2.422000   2.806913   2.395623   1.398052
     7  H    1.086000   2.157850   3.410804   3.853000   3.410804
     8  H    2.158863   1.086299   2.150493   3.381874   3.893212
     9  H    3.421628   2.176109   1.083244   2.148423   3.416380
    10  H    3.421628   3.889817   3.416380   2.148423   1.083244
    11  H    2.158863   3.407224   3.893212   3.381874   2.150493
    12  N    4.247000   3.748030   2.472636   1.480000   2.472636
    13  O    4.935104   4.713382   3.567327   2.318706   2.718207
    14  O    4.935104   4.114750   2.718207   2.318706   3.567327
    15  C    9.090878   8.026565   6.704047   6.641391   7.879756
    16  C    9.873039   8.720265   7.447780   7.538700   8.833629
    17  C   10.827379   9.750100   8.437482   8.368876   9.585947
    18  H    9.885503   8.880842   7.547328   7.373923   8.540085
    19  H    8.513889   7.537693   6.167102   5.940386   7.121442
    20  H   10.539970   9.333595   8.114836   8.313843   9.636860
    21  H    9.266558   8.067107   6.850791   7.074076   8.405965
    22  H   10.367766   9.370878   8.038062   7.847357   8.996430
    23  H   11.526307  10.486961   9.145226   8.987038  10.162224
    24  H   11.478959  10.358051   9.092971   9.119126  10.359722
    25  C    8.325088   7.201124   5.972371   6.108128   7.389610
    26  C    7.810431   6.838677   5.627844   5.577983   6.722534
    27  C    7.362746   6.380322   5.377116   5.556100   6.655640
    28  H    9.109593   7.936308   6.789710   7.046203   8.336774
    29  H    7.599238   6.397894   5.212654   5.528383   6.876357
    30  H    8.722964   7.823796   6.609704   6.432948   7.486302
    31  H    7.132197   6.258914   4.977044   4.722858   5.816861
    32  H    6.518906   5.450352   4.514318   4.904203   6.068513
    33  H    8.237798   7.202036   6.277242   6.575488   7.691676
    34  H    7.244258   6.425523   5.497814   5.527519   6.455050
                    6          7          8          9         10
     6  C    0.000000
     7  H    2.157850   0.000000
     8  H    3.407224   2.487053   0.000000
     9  H    3.889817   4.321495   2.506010   0.000000
    10  H    2.176109   4.321495   4.976087   4.292000   0.000000
    11  H    1.086299   2.487053   4.306000   4.976087   2.506010
    12  N    3.748030   5.333000   4.620298   2.666091   2.666091
    13  O    4.114750   5.999040   5.673028   3.884852   2.393100
    14  O    4.713382   5.999040   4.773632   2.393100   3.884852
    15  C    9.022407  10.097184   8.340144   5.900744   8.056391
    16  C    9.918932  10.844985   8.916351   6.547335   9.080747
    17  C   10.749912  11.829596  10.026026   7.612540   9.709367
    18  H    9.730546  10.905093   9.240952   6.803977   8.620804
    19  H    8.329115   9.553548   7.962843   5.465028   7.219368
    20  H   10.670961  11.478163   9.440227   7.162118   9.935058
    21  H    9.411286  10.203665   8.194292   5.905920   8.747201
    22  H   10.196984  11.388312   9.731570   7.299577   9.051513
    23  H   11.376262  12.549268  10.807394   8.354229  10.210183
    24  H   11.475589  12.451051  10.559551   8.225835  10.531059
    25  C    8.402826   9.276317   7.417577   5.119351   7.709523
    26  C    7.755946   8.770295   7.183712   4.968655   6.957788
    27  C    7.479420   8.219176   6.599111   4.750453   7.039986
    28  H    9.282080  10.012629   8.043099   5.888961   8.703032
    29  H    7.800528   8.520715   6.534807   4.272341   7.317403
    30  H    8.570127   9.690020   8.212192   6.012879   7.605047
    31  H    6.939018   8.140211   6.743043   4.442824   5.970334
    32  H    6.781794   7.343012   5.583855   3.825461   6.595082
    33  H    8.451838   9.039374   7.299023   5.580633   8.112524
    34  H    7.253743   8.078931   6.735647   5.065255   6.762662
                   11         12         13         14         15
    11  H    0.000000
    12  N    4.620298   0.000000
    13  O    4.773632   1.229080   0.000000
    14  O    5.673028   1.229080   2.182000   0.000000
    15  C    9.987132   5.457260   5.856533   4.359276   0.000000
    16  C   10.918920   6.432542   6.919522   5.267971   1.529047
    17  C   11.703022   7.147077   7.443903   6.078365   2.546286
    18  H   10.654143   6.121625   6.362617   5.122086   1.098610
    19  H    9.259168   4.655898   4.947424   3.628221   1.098816
    20  H   11.691107   7.277108   7.821400   6.088671   2.152561
    21  H   10.436276   6.096340   6.721015   4.899594   2.152561
    22  H   11.110489   6.581085   6.778899   5.602693   2.803299
    23  H   12.303124   7.693591   7.876970   6.673103   2.803299
    24  H   12.445241   7.965223   8.321358   6.874801   3.500760
    25  C    9.399884   5.145864   5.756158   4.029907   1.527655
    26  C    8.683685   4.627375   5.106970   3.744398   2.554281
    27  C    8.404221   4.967084   5.613525   4.217576   3.916783
    28  H   10.290203   6.172850   6.817271   5.059577   2.155507
    29  H    8.838004   4.723111   5.519955   3.539512   2.155750
    30  H    9.444196   5.394842   5.680525   4.609284   2.776382
    31  H    7.837520   3.648750   4.033128   2.860000   2.776382
    32  H    7.754645   4.524492   5.365300   3.756846   4.228003
    33  H    9.383944   6.029236   6.699225   5.220539   4.228003
    34  H    8.093901   5.011133   5.521048   4.502797   4.730015
                   16         17         18         19         20
    16  C    0.000000
    17  C    1.528985   0.000000
    18  H    2.155655   2.768905   0.000000
    19  H    2.155330   2.768927   1.761000   0.000000
    20  H    1.097550   2.161693   2.501266   3.058264   0.000000
    21  H    1.097550   2.161692   3.058419   2.500372   1.760000
    22  H    2.171275   1.094806   3.122903   2.576229   3.074390
    23  H    2.171275   1.094807   2.576301   3.123411   2.517276
    24  H    2.182504   1.094468   3.775302   3.775137   2.508384
    25  C    2.554279   3.916782   2.155749   2.155507   2.776381
    26  C    3.923128   5.100546   2.781358   2.781504   4.203070
    27  C    5.100546   6.427737   4.204569   4.204484   5.211519
    28  H    2.781503   4.204483   2.504587   3.061615   2.551217
    29  H    2.781358   4.204569   3.061809   2.504588   3.099347
    30  H    4.203070   5.211520   2.551148   3.099973   4.387744
    31  H    4.203070   5.211519   3.099347   2.551218   4.727567
    32  H    5.248682   6.635279   4.755801   4.415731   5.422721
    33  H    5.248682   6.635279   4.416157   4.755777   5.127445
    34  H    6.032715   7.274719   4.888347   4.888413   6.192290
                   21         22         23         24         25
    21  H    0.000000
    22  H    2.517275   0.000000
    23  H    3.074390   1.770000   0.000000
    24  H    2.508383   1.771809   1.771810   0.000000
    25  C    2.776381   4.228001   4.228002   4.730015   0.000000
    26  C    4.203070   5.248682   5.248682   6.032715   1.529048
    27  C    5.211520   6.635279   6.635279   7.274720   2.546288
    28  H    3.099972   4.755776   4.415730   4.888413   1.098815
    29  H    2.551147   4.416156   4.755801   4.888347   1.098611
    30  H    4.727568   5.422721   5.127446   6.192291   2.152561
    31  H    4.387744   5.127445   5.422721   6.192291   2.152561
    32  H    5.127446   6.782504   7.009655   7.408767   2.803301
    33  H    5.422721   7.009654   6.782504   7.408767   2.803300
    34  H    6.192291   7.408766   7.408767   8.180648   3.500761
                   26         27         28         29         30
    26  C    0.000000
    27  C    1.528985   0.000000
    28  H    2.155329   2.768927   0.000000
    29  H    2.155656   2.768906   1.761000   0.000000
    30  H    1.097550   2.161692   2.500371   3.058420   0.000000
    31  H    1.097550   2.161693   3.058263   2.501266   1.760000
    32  H    2.171275   1.094807   3.123411   2.576301   3.074390
    33  H    2.171275   1.094806   2.576229   3.122904   2.517275
    34  H    2.182503   1.094467   3.775137   3.775302   2.508382
                   31         32         33         34
    31  H    0.000000
    32  H    2.517276   0.000000
    33  H    3.074390   1.770000   0.000000
    34  H    2.508383   1.771809   1.771809   0.000000
 Stoichiometry    C12H19NO2
 Framework group  C1[X(C12H19NO2)]
 Deg. of freedom    96
 Full point group                 C1      NOp   1
 Largest Abelian subgroup         C1      NOp   1
 Largest concise Abelian subgroup C1      NOp   1
                         Standard orientation:                         
 ---------------------------------------------------------------------
 Center     Atomic      Atomic             Coordinates (Angstroms)
 Number     Number       Type             X           Y           Z
 ---------------------------------------------------------------------
      1          6           0        4.988847    0.451013    1.026932
      2          6           0        3.767054    0.712467    1.655729
      3          6           0        2.569147    0.257342    1.096777
      4          6           0        2.630141   -0.459442   -0.097288
      5          6           0        3.831702   -0.735969   -0.747729
      6          6           0        5.017221   -0.271098   -0.170679
      7          1           0        5.914598    0.808351    1.468169
      8          1           0        3.741991    1.273021    2.585888
      9          1           0        1.609387    0.445603    1.562433
     10          1           0        3.824794   -1.297362   -1.674125
     11          1           0        5.964625   -0.475630   -0.661227
     12          7           0        1.368528   -0.946422   -0.698606
     13          8           0        1.449189   -1.575709   -1.751282
     14          8           0        0.322903   -0.689607   -0.105856
     15          6           0       -4.004542   -0.165545   -0.149024
     16          6           0       -4.819263   -0.679364    1.038496
     17          6           0       -5.557381   -1.982251    0.729524
     18          1           0       -4.673929   -0.014820   -1.007014
     19          1           0       -3.280657   -0.935913   -0.448891
     20          1           0       -5.540455    0.092287    1.336913
     21          1           0       -4.147890   -0.828702    1.893815
     22          1           0       -4.849162   -2.769943    0.452818
     23          1           0       -6.249640   -1.843722   -0.107248
     24          1           0       -6.133386   -2.331615    1.592091
     25          6           0       -3.260919    1.136250    0.144375
     26          6           0       -2.446197    1.650069   -1.043145
     27          6           0       -1.708079    2.952956   -0.734174
     28          1           0       -3.984803    1.906617    0.444241
     29          1           0       -2.591531    0.985524    1.002365
     30          1           0       -3.117571    1.799407   -1.898465
     31          1           0       -1.725005    0.878418   -1.341562
     32          1           0       -1.015820    2.814427    0.102599
     33          1           0       -2.416298    3.740649   -0.457468
     34          1           0       -1.132074    3.302320   -1.596740
 ---------------------------------------------------------------------
 Rotational constants (GHZ):           0.9272709           0.1826350           0.1730278
 Leave Link  202 at Thu May  6 10:47:27 2021, MaxMem=   524288000 cpu:               0.1 elap:               0.1
 (Enter /opt/gaussian/g16_legacy/l301.exe)
 Standard basis: 6-31G(d) (6D, 7F)
 Ernie: Thresh=  0.10000D-02 Tol=  0.10000D-05 Strict=F.
 There are   263 symmetry adapted cartesian basis functions of A   symmetry.
 There are   263 symmetry adapted basis functions of A   symmetry.
   263 basis functions,   496 primitive gaussians,   263 cartesian basis functions
    57 alpha electrons       57 beta electrons
       nuclear repulsion energy       914.3128368122 Hartrees.
 IExCor=    0 DFT=F Ex=HF Corr=None ExCW=0 ScaHFX=  1.000000
 ScaDFX=  1.000000  1.000000  1.000000  1.000000 ScalE2=  1.000000  1.000000
 IRadAn=      5 IRanWt=     -1 IRanGd=            0 ICorTp=0 IEmpDi=  4
 NAtoms=   34 NActive=   34 NUniq=   34 SFac= 1.00D+00 NAtFMM=   60 NAOKFM=F Big=F
 Integral buffers will be    131072 words long.
 Raffenetti 1 integral format.
 Two-electron integral symmetry is turned on.
 Leave Link  301 at Thu May  6 10:47:28 2021, MaxMem=   524288000 cpu:               0.3 elap:               0.2
 (Enter /opt/gaussian/g16_legacy/l302.exe)
 NPDir=0 NMtPBC=     1 NCelOv=     1 NCel=       1 NClECP=     1 NCelD=      1
         NCelK=      1 NCelE2=     1 NClLst=     1 CellRange=     0.0.
 One-electron integrals computed using PRISM.
 One-electron integral symmetry used in STVInt
 NBasis=   263 RedAO= T EigKep=  4.81D-04  NBF=   263
 NBsUse=   263 1.00D-06 EigRej= -1.00D+00 NBFU=   263
 Leave Link  302 at Thu May  6 10:47:28 2021, MaxMem=   524288000 cpu:               0.8 elap:               0.6
 (Enter /opt/gaussian/g16_legacy/l303.exe)
 DipDrv:  MaxL=1.
 Leave Link  303 at Thu May  6 10:47:29 2021, MaxMem=   524288000 cpu:               0.1 elap:               0.1
 (Enter /opt/gaussian/g16_legacy/l401.exe)
 ExpMin= 1.61D-01 ExpMax= 5.48D+03 ExpMxC= 8.25D+02 IAcc=3 IRadAn=         5 AccDes= 0.00D+00
 Harris functional with IExCor=  205 and IRadAn=       5 diagonalized for initial guess.
 HarFok:  IExCor=  205 AccDes= 0.00D+00 IRadAn=         5 IDoV= 1 UseB2=F ITyADJ=14
 ICtDFT=  3500011 ScaDFX=  1.000000  1.000000  1.000000  1.000000
 FoFCou: FMM=F IPFlag=           0 FMFlag=      100000 FMFlg1=           0
         NFxFlg=           0 DoJE=T BraDBF=F KetDBF=T FulRan=T
         wScrn=  0.000000 ICntrl=       500 IOpCl=  0 I1Cent=   200000004 NGrid=           0
         NMat0=    1 NMatS0=      1 NMatT0=    0 NMatD0=    1 NMtDS0=    0 NMtDT0=    0
 Petite list used in FoFCou.
 Harris En= -670.658518088240    
 JPrj=0 DoOrth=F DoCkMO=F.
 Leave Link  401 at Thu May  6 10:47:36 2021, MaxMem=   524288000 cpu:              14.8 elap:               7.6
 (Enter /opt/gaussian/g16_legacy/l502.exe)
 Integral symmetry usage will be decided dynamically.
 Closed shell SCF:
 Using DIIS extrapolation, IDIIS=  1040.
 NGot=   524288000 LenX=   524144919 LenY=   524075309
 Requested convergence on RMS density matrix=1.00D-08 within 128 cycles.
 Requested convergence on MAX density matrix=1.00D-06.
 Requested convergence on             energy=1.00D-06.
 No special actions if energy rises.
 Fock matrices will be formed incrementally for  20 cycles.
 Integral accuracy reduced to 1.0D-05 until final iterations.

 Cycle   1  Pass 0  IDiag  1:
 FoFJK:  IHMeth= 1 ICntrl=       0 DoSepK=F KAlg= 0 I1Cent=           0 FoldK=F
 IRaf= 730000000 NMat=       1 IRICut=       1 DoRegI=T DoRafI=F ISym2E= 0 IDoP0=0 IntGTp=1.
 FoFCou: FMM=F IPFlag=           0 FMFlag=      100000 FMFlg1=           0
         NFxFlg=           0 DoJE=F BraDBF=F KetDBF=F FulRan=T
         wScrn=  0.000000 ICntrl=         0 IOpCl=  0 I1Cent=           0 NGrid=           0
         NMat0=    1 NMatS0=      1 NMatT0=    0 NMatD0=    1 NMtDS0=    0 NMtDT0=    0
 Symmetry not used in FoFCou.
 E= -668.737815217973    
 DIIS: error= 6.01D-02 at cycle   1 NSaved=   1.
 NSaved= 1 IEnMin= 1 EnMin= -668.737815217973     IErMin= 1 ErrMin= 6.01D-02
 ErrMax= 6.01D-02  0.00D+00 EMaxC= 1.00D-01 BMatC= 1.18D+00 BMatP= 1.18D+00
 IDIUse=3 WtCom= 3.99D-01 WtEn= 6.01D-01
 Coeff-Com:  0.100D+01
 Coeff-En:   0.100D+01
 Coeff:      0.100D+01
 Gap=     0.555 Goal=   None    Shift=    0.000
 GapD=    0.555 DampG=2.000 DampE=0.500 DampFc=1.0000 IDamp=-1.
 RMSDP=4.61D-03 MaxDP=1.18D-01              OVMax= 1.51D-01

 Cycle   2  Pass 0  IDiag  1:
 RMSU=  4.48D-03    CP:  9.48D-01
 E= -669.357877096694     Delta-E=       -0.620061878721 Rises=F Damp=F
 DIIS: error= 2.58D-02 at cycle   2 NSaved=   2.
 NSaved= 2 IEnMin= 2 EnMin= -669.357877096694     IErMin= 2 ErrMin= 2.58D-02
 ErrMax= 2.58D-02  0.00D+00 EMaxC= 1.00D-01 BMatC= 2.19D-01 BMatP= 1.18D+00
 IDIUse=3 WtCom= 7.42D-01 WtEn= 2.58D-01
 Coeff-Com:  0.247D+00 0.753D+00
 Coeff-En:   0.000D+00 0.100D+01
 Coeff:      0.184D+00 0.816D+00
 Gap=     0.551 Goal=   None    Shift=    0.000
 RMSDP=1.81D-03 MaxDP=8.24D-02 DE=-6.20D-01 OVMax= 1.21D-01

 Cycle   3  Pass 0  IDiag  1:
 RMSU=  1.43D-03    CP:  9.57D-01  7.55D-01
 E= -669.509560193950     Delta-E=       -0.151683097256 Rises=F Damp=F
 DIIS: error= 1.24D-02 at cycle   3 NSaved=   3.
 NSaved= 3 IEnMin= 3 EnMin= -669.509560193950     IErMin= 3 ErrMin= 1.24D-02
 ErrMax= 1.24D-02  0.00D+00 EMaxC= 1.00D-01 BMatC= 3.49D-02 BMatP= 2.19D-01
 IDIUse=3 WtCom= 8.76D-01 WtEn= 1.24D-01
 Coeff-Com: -0.921D-02 0.263D+00 0.746D+00
 Coeff-En:   0.000D+00 0.000D+00 0.100D+01
 Coeff:     -0.806D-02 0.231D+00 0.777D+00
 Gap=     0.425 Goal=   None    Shift=    0.000
 RMSDP=5.84D-04 MaxDP=3.13D-02 DE=-1.52D-01 OVMax= 4.91D-02

 Cycle   4  Pass 0  IDiag  1:
 RMSU=  3.96D-04    CP:  9.55D-01  8.30D-01  8.15D-01
 E= -669.534170678511     Delta-E=       -0.024610484560 Rises=F Damp=F
 DIIS: error= 3.92D-03 at cycle   4 NSaved=   4.
 NSaved= 4 IEnMin= 4 EnMin= -669.534170678511     IErMin= 4 ErrMin= 3.92D-03
 ErrMax= 3.92D-03  0.00D+00 EMaxC= 1.00D-01 BMatC= 2.76D-03 BMatP= 3.49D-02
 IDIUse=3 WtCom= 9.61D-01 WtEn= 3.92D-02
 Coeff-Com: -0.132D-01 0.423D-01 0.289D+00 0.682D+00
 Coeff-En:   0.000D+00 0.000D+00 0.000D+00 0.100D+01
 Coeff:     -0.127D-01 0.407D-01 0.277D+00 0.695D+00
 Gap=     0.411 Goal=   None    Shift=    0.000
 RMSDP=1.68D-04 MaxDP=8.31D-03 DE=-2.46D-02 OVMax= 1.39D-02

 Cycle   5  Pass 0  IDiag  1:
 RMSU=  9.68D-05    CP:  9.55D-01  8.33D-01  8.85D-01  7.68D-01
 E= -669.536419352078     Delta-E=       -0.002248673568 Rises=F Damp=F
 DIIS: error= 5.23D-04 at cycle   5 NSaved=   5.
 NSaved= 5 IEnMin= 5 EnMin= -669.536419352078     IErMin= 5 ErrMin= 5.23D-04
 ErrMax= 5.23D-04  0.00D+00 EMaxC= 1.00D-01 BMatC= 5.77D-05 BMatP= 2.76D-03
 IDIUse=3 WtCom= 9.95D-01 WtEn= 5.23D-03
 Coeff-Com:  0.203D-02-0.189D-01-0.761D-01-0.361D-01 0.113D+01
 Coeff-En:   0.000D+00 0.000D+00 0.000D+00 0.000D+00 0.100D+01
 Coeff:      0.202D-02-0.188D-01-0.757D-01-0.360D-01 0.113D+01
 Gap=     0.413 Goal=   None    Shift=    0.000
 RMSDP=5.31D-05 MaxDP=1.47D-03 DE=-2.25D-03 OVMax= 4.71D-03

 Cycle   6  Pass 0  IDiag  1:
 RMSU=  2.48D-05    CP:  9.55D-01  8.36D-01  8.98D-01  8.53D-01  1.26D+00
 E= -669.536528772685     Delta-E=       -0.000109420607 Rises=F Damp=F
 DIIS: error= 2.06D-04 at cycle   6 NSaved=   6.
 NSaved= 6 IEnMin= 6 EnMin= -669.536528772685     IErMin= 6 ErrMin= 2.06D-04
 ErrMax= 2.06D-04  0.00D+00 EMaxC= 1.00D-01 BMatC= 5.97D-06 BMatP= 5.77D-05
 IDIUse=3 WtCom= 9.98D-01 WtEn= 2.06D-03
 Coeff-Com:  0.128D-02-0.653D-02-0.344D-01-0.539D-01 0.146D+00 0.947D+00
 Coeff-En:   0.000D+00 0.000D+00 0.000D+00 0.000D+00 0.000D+00 0.100D+01
 Coeff:      0.127D-02-0.651D-02-0.343D-01-0.538D-01 0.146D+00 0.948D+00
 Gap=     0.413 Goal=   None    Shift=    0.000
 RMSDP=1.75D-05 MaxDP=5.96D-04 DE=-1.09D-04 OVMax= 1.71D-03

 Cycle   7  Pass 0  IDiag  1:
 RMSU=  8.83D-06    CP:  9.55D-01  8.36D-01  9.01D-01  8.65D-01  1.39D+00
                    CP:  1.18D+00
 E= -669.536544005094     Delta-E=       -0.000015232409 Rises=F Damp=F
 DIIS: error= 1.52D-04 at cycle   7 NSaved=   7.
 NSaved= 7 IEnMin= 7 EnMin= -669.536544005094     IErMin= 7 ErrMin= 1.52D-04
 ErrMax= 1.52D-04  0.00D+00 EMaxC= 1.00D-01 BMatC= 1.16D-06 BMatP= 5.97D-06
 IDIUse=3 WtCom= 9.98D-01 WtEn= 1.52D-03
 Coeff-Com: -0.258D-03 0.241D-02 0.963D-02 0.648D-02-0.154D+00 0.756D-02
 Coeff-Com:  0.113D+01
 Coeff-En:   0.000D+00 0.000D+00 0.000D+00 0.000D+00 0.000D+00 0.000D+00
 Coeff-En:   0.100D+01
 Coeff:     -0.258D-03 0.241D-02 0.962D-02 0.647D-02-0.154D+00 0.755D-02
 Coeff:      0.113D+01
 Gap=     0.413 Goal=   None    Shift=    0.000
 RMSDP=8.99D-06 MaxDP=3.80D-04 DE=-1.52D-05 OVMax= 1.37D-03

 Initial convergence to 1.0D-05 achieved.  Increase integral accuracy.
 Cycle   8  Pass 1  IDiag  1:
 E= -669.536547977579     Delta-E=       -0.000003972485 Rises=F Damp=F
 DIIS: error= 6.80D-05 at cycle   1 NSaved=   1.
 NSaved= 1 IEnMin= 1 EnMin= -669.536547977579     IErMin= 1 ErrMin= 6.80D-05
 ErrMax= 6.80D-05  0.00D+00 EMaxC= 1.00D-01 BMatC= 3.74D-07 BMatP= 3.74D-07
 IDIUse=1 WtCom= 1.00D+00 WtEn= 0.00D+00
 Coeff-Com:  0.100D+01
 Coeff:      0.100D+01
 Gap=     0.413 Goal=   None    Shift=    0.000
 RMSDP=8.99D-06 MaxDP=3.80D-04 DE=-3.97D-06 OVMax= 5.36D-04

 Cycle   9  Pass 1  IDiag  1:
 RMSU=  1.08D-05    CP:  1.00D+00
 E= -669.536549007810     Delta-E=       -0.000001030231 Rises=F Damp=F
 DIIS: error= 5.41D-05 at cycle   2 NSaved=   2.
 NSaved= 2 IEnMin= 2 EnMin= -669.536549007810     IErMin= 2 ErrMin= 5.41D-05
 ErrMax= 5.41D-05  0.00D+00 EMaxC= 1.00D-01 BMatC= 1.16D-07 BMatP= 3.74D-07
 IDIUse=1 WtCom= 1.00D+00 WtEn= 0.00D+00
 Coeff-Com: -0.741D-02 0.101D+01
 Coeff:     -0.741D-02 0.101D+01
 Gap=     0.413 Goal=   None    Shift=    0.000
 RMSDP=2.34D-06 MaxDP=8.59D-05 DE=-1.03D-06 OVMax= 3.92D-04

 Cycle  10  Pass 1  IDiag  1:
 RMSU=  2.11D-06    CP:  1.00D+00  1.09D+00
 E= -669.536549424414     Delta-E=       -0.000000416604 Rises=F Damp=F
 DIIS: error= 3.16D-05 at cycle   3 NSaved=   3.
 NSaved= 3 IEnMin= 3 EnMin= -669.536549424414     IErMin= 3 ErrMin= 3.16D-05
 ErrMax= 3.16D-05  0.00D+00 EMaxC= 1.00D-01 BMatC= 5.27D-08 BMatP= 1.16D-07
 IDIUse=1 WtCom= 1.00D+00 WtEn= 0.00D+00
 Coeff-Com: -0.355D+00 0.101D+00 0.125D+01
 Coeff:     -0.355D+00 0.101D+00 0.125D+01
 Gap=     0.413 Goal=   None    Shift=    0.000
 RMSDP=2.49D-06 MaxDP=6.93D-05 DE=-4.17D-07 OVMax= 3.78D-04

 Cycle  11  Pass 1  IDiag  1:
 RMSU=  1.44D-06    CP:  1.00D+00  1.18D+00  1.85D+00
 E= -669.536549698940     Delta-E=       -0.000000274526 Rises=F Damp=F
 DIIS: error= 1.40D-05 at cycle   4 NSaved=   4.
 NSaved= 4 IEnMin= 4 EnMin= -669.536549698940     IErMin= 4 ErrMin= 1.40D-05
 ErrMax= 1.40D-05  0.00D+00 EMaxC= 1.00D-01 BMatC= 7.70D-09 BMatP= 5.27D-08
 IDIUse=1 WtCom= 1.00D+00 WtEn= 0.00D+00
 Coeff-Com:  0.131D-01-0.312D+00-0.625D-01 0.136D+01
 Coeff:      0.131D-01-0.312D+00-0.625D-01 0.136D+01
 Gap=     0.413 Goal=   None    Shift=    0.000
 RMSDP=1.53D-06 MaxDP=4.46D-05 DE=-2.75D-07 OVMax= 2.42D-04

 Cycle  12  Pass 1  IDiag  1:
 RMSU=  1.94D-07    CP:  1.00D+00  1.21D+00  2.49D+00  1.41D+00
 E= -669.536549749351     Delta-E=       -0.000000050411 Rises=F Damp=F
 DIIS: error= 1.56D-06 at cycle   5 NSaved=   5.
 NSaved= 5 IEnMin= 5 EnMin= -669.536549749351     IErMin= 5 ErrMin= 1.56D-06
 ErrMax= 1.56D-06  0.00D+00 EMaxC= 1.00D-01 BMatC= 5.55D-10 BMatP= 7.70D-09
 IDIUse=1 WtCom= 1.00D+00 WtEn= 0.00D+00
 Coeff-Com:  0.192D-01-0.122D+00-0.665D-01 0.514D+00 0.655D+00
 Coeff:      0.192D-01-0.122D+00-0.665D-01 0.514D+00 0.655D+00
 Gap=     0.413 Goal=   None    Shift=    0.000
 RMSDP=9.67D-08 MaxDP=3.36D-06 DE=-5.04D-08 OVMax= 1.10D-05

 Cycle  13  Pass 1  IDiag  1:
 RMSU=  7.21D-08    CP:  1.00D+00  1.21D+00  2.51D+00  1.45D+00  9.95D-01
 E= -669.536549749932     Delta-E=       -0.000000000581 Rises=F Damp=F
 DIIS: error= 7.86D-07 at cycle   6 NSaved=   6.
 NSaved= 6 IEnMin= 6 EnMin= -669.536549749932     IErMin= 6 ErrMin= 7.86D-07
 ErrMax= 7.86D-07  0.00D+00 EMaxC= 1.00D-01 BMatC= 3.91D-11 BMatP= 5.55D-10
 IDIUse=1 WtCom= 1.00D+00 WtEn= 0.00D+00
 Coeff-Com: -0.239D-02 0.499D-01 0.106D-01-0.222D+00-0.684D-01 0.123D+01
 Coeff:     -0.239D-02 0.499D-01 0.106D-01-0.222D+00-0.684D-01 0.123D+01
 Gap=     0.413 Goal=   None    Shift=    0.000
 RMSDP=5.57D-08 MaxDP=2.06D-06 DE=-5.81D-10 OVMax= 6.68D-06

 Cycle  14  Pass 1  IDiag  1:
 RMSU=  2.50D-08    CP:  1.00D+00  1.21D+00  2.52D+00  1.46D+00  1.16D+00
                    CP:  1.32D+00
 E= -669.536549750095     Delta-E=       -0.000000000164 Rises=F Damp=F
 DIIS: error= 2.05D-07 at cycle   7 NSaved=   7.
 NSaved= 7 IEnMin= 7 EnMin= -669.536549750095     IErMin= 7 ErrMin= 2.05D-07
 ErrMax= 2.05D-07  0.00D+00 EMaxC= 1.00D-01 BMatC= 7.76D-12 BMatP= 3.91D-11
 IDIUse=1 WtCom= 1.00D+00 WtEn= 0.00D+00
 Coeff-Com: -0.266D-02 0.229D-01 0.105D-01-0.101D+00-0.119D+00 0.286D+00
 Coeff-Com:  0.903D+00
 Coeff:     -0.266D-02 0.229D-01 0.105D-01-0.101D+00-0.119D+00 0.286D+00
 Coeff:      0.903D+00
 Gap=     0.413 Goal=   None    Shift=    0.000
 RMSDP=1.63D-08 MaxDP=7.77D-07 DE=-1.64D-10 OVMax= 1.37D-06

 Cycle  15  Pass 1  IDiag  1:
 RMSU=  9.22D-09    CP:  1.00D+00  1.21D+00  2.53D+00  1.46D+00  1.19D+00
                    CP:  1.45D+00  1.14D+00
 E= -669.536549750088     Delta-E=        0.000000000007 Rises=F Damp=F
 DIIS: error= 6.65D-08 at cycle   8 NSaved=   8.
 NSaved= 8 IEnMin= 7 EnMin= -669.536549750095     IErMin= 8 ErrMin= 6.65D-08
 ErrMax= 6.65D-08  0.00D+00 EMaxC= 1.00D-01 BMatC= 7.69D-13 BMatP= 7.76D-12
 IDIUse=1 WtCom= 1.00D+00 WtEn= 0.00D+00
 Coeff-Com:  0.503D-03-0.835D-02-0.157D-02 0.359D-01 0.279D-02-0.143D+00
 Coeff-Com: -0.103D+00 0.122D+01
 Coeff:      0.503D-03-0.835D-02-0.157D-02 0.359D-01 0.279D-02-0.143D+00
 Coeff:     -0.103D+00 0.122D+01
 Gap=     0.413 Goal=   None    Shift=    0.000
 RMSDP=6.65D-09 MaxDP=3.33D-07 DE= 7.28D-12 OVMax= 7.40D-07

 SCF Done:  E(RHF) =  -669.536549750     A.U. after   15 cycles
            NFock= 15  Conv=0.67D-08     -V/T= 2.0024
 KE= 6.679525388719D+02 PE=-3.392136941011D+03 EE= 1.140335015576D+03
 Leave Link  502 at Thu May  6 10:48:27 2021, MaxMem=   524288000 cpu:             101.0 elap:              51.0
 (Enter /opt/gaussian/g16_legacy/l801.exe)
 ExpMin= 1.61D-01 ExpMax= 5.48D+03 ExpMxC= 8.25D+02 IAcc=3 IRadAn=         5 AccDes= 0.00D+00
 HarFok:  IExCor=  205 AccDes= 0.00D+00 IRadAn=         5 IDoV=-2 UseB2=F ITyADJ=14
 ICtDFT= 12500011 ScaDFX=  1.000000  1.000000  1.000000  1.000000
 Largest valence mixing into a core orbital is  1.97D-04
 Largest core mixing into a valence orbital is  4.00D-05
 Range of M.O.s used for correlation:    16   263
 NBasis=   263 NAE=    57 NBE=    57 NFC=    15 NFV=     0
 NROrb=    248 NOA=    42 NOB=    42 NVA=   206 NVB=   206
 Leave Link  801 at Thu May  6 10:48:29 2021, MaxMem=   524288000 cpu:               2.1 elap:               1.6
 (Enter /opt/gaussian/g16_legacy/l906.exe)
 FulOut=F Deriv=F AODrv=F NAtomX=    34
   MMem=         113  MDisk=          42 MDiskD=          42
  W3Min=     2275476 MinDsk=     2420380 NBas6D=         263
 NBas2D=       35121    NTT=       34716    LW2=     2000000
    MDV=   523945790 MDiskM=       27563 NBas2p=       24090
 Fully direct method using O(OVN) memory.
 IMap=   1   2   3   4   5   6   7   8   9  10  11  12  13  14  15  16  17  18  19  20
 IMap=  21  22  23  24  25  26  27  28  29  30  31  32  33  34  35  36  37  38  39  40
 IMap=  41  42
 JobTyp=1 Pass  1:  I=   1 to  42 NPSUse=  2 ParTrn=T ParDer=T DoDerP=F.
 Spin components of T(2) and E(2):
     alpha-alpha T2 =       0.9491501024D-01 E2=     -0.2719133052D+00
     alpha-beta  T2 =       0.5259900341D+00 E2=     -0.1547603235D+01
     beta-beta   T2 =       0.9491501024D-01 E2=     -0.2719133052D+00
 The integrals were generated   1 times.
 ANorm=    0.1309893146D+01
 E2 =    -0.2091429845D+01 EUMP2 =    -0.67162797959514D+03
 Leave Link  906 at Thu May  6 10:49:29 2021, MaxMem=   524288000 cpu:             116.7 elap:              59.5
 (Enter /opt/gaussian/g16_legacy/l601.exe)
 Copying SCF densities to generalized density rwf, IOpCl= 0 IROHF=0.

 **********************************************************************

            Population analysis using the SCF density.

 **********************************************************************

 Orbital symmetries:
       Occupied  (A) (A) (A) (A) (A) (A) (A) (A) (A) (A) (A) (A)
                 (A) (A) (A) (A) (A) (A) (A) (A) (A) (A) (A) (A)
                 (A) (A) (A) (A) (A) (A) (A) (A) (A) (A) (A) (A)
                 (A) (A) (A) (A) (A) (A) (A) (A) (A) (A) (A) (A)
                 (A) (A) (A) (A) (A) (A) (A) (A) (A)
       Virtual   (A) (A) (A) (A) (A) (A) (A) (A) (A) (A) (A) (A)
                 (A) (A) (A) (A) (A) (A) (A) (A) (A) (A) (A) (A)
                 (A) (A) (A) (A) (A) (A) (A) (A) (A) (A) (A) (A)
                 (A) (A) (A) (A) (A) (A) (A) (A) (A) (A) (A) (A)
                 (A) (A) (A) (A) (A) (A) (A) (A) (A) (A) (A) (A)
                 (A) (A) (A) (A) (A) (A) (A) (A) (A) (A) (A) (A)
                 (A) (A) (A) (A) (A) (A) (A) (A) (A) (A) (A) (A)
                 (A) (A) (A) (A) (A) (A) (A) (A) (A) (A) (A) (A)
                 (A) (A) (A) (A) (A) (A) (A) (A) (A) (A) (A) (A)
                 (A) (A) (A) (A) (A) (A) (A) (A) (A) (A) (A) (A)
                 (A) (A) (A) (A) (A) (A) (A) (A) (A) (A) (A) (A)
                 (A) (A) (A) (A) (A) (A) (A) (A) (A) (A) (A) (A)
                 (A) (A) (A) (A) (A) (A) (A) (A) (A) (A) (A) (A)
                 (A) (A) (A) (A) (A) (A) (A) (A) (A) (A) (A) (A)
                 (A) (A) (A) (A) (A) (A) (A) (A) (A) (A) (A) (A)
                 (A) (A) (A) (A) (A) (A) (A) (A) (A) (A) (A) (A)
                 (A) (A) (A) (A) (A) (A) (A) (A) (A) (A) (A) (A)
                 (A) (A)
 The electronic state is 1-A.
 Alpha  occ. eigenvalues --  -20.61066 -20.61055 -15.86081 -11.31354 -11.27912
 Alpha  occ. eigenvalues --  -11.27906 -11.27639 -11.26907 -11.26897 -11.20676
 Alpha  occ. eigenvalues --  -11.20286 -11.20256 -11.20238 -11.20204 -11.20160
 Alpha  occ. eigenvalues --   -1.60115  -1.39672  -1.19516  -1.08930  -1.07299
 Alpha  occ. eigenvalues --   -1.04906  -1.02507  -0.95780  -0.94998  -0.86309
 Alpha  occ. eigenvalues --   -0.86022  -0.82617  -0.78566  -0.77676  -0.77104
 Alpha  occ. eigenvalues --   -0.72310  -0.71423  -0.70626  -0.65177  -0.64909
 Alpha  occ. eigenvalues --   -0.63889  -0.62254  -0.59886  -0.58373  -0.56610
 Alpha  occ. eigenvalues --   -0.55412  -0.54285  -0.53238  -0.52998  -0.51737
 Alpha  occ. eigenvalues --   -0.51436  -0.49131  -0.49061  -0.48888  -0.46909
 Alpha  occ. eigenvalues --   -0.45620  -0.45074  -0.44676  -0.44410  -0.42741
 Alpha  occ. eigenvalues --   -0.37490  -0.36503
 Alpha virt. eigenvalues --    0.04821   0.11148   0.16312   0.21156   0.23844
 Alpha virt. eigenvalues --    0.25049   0.26983   0.27505   0.28550   0.28697
 Alpha virt. eigenvalues --    0.28921   0.30782   0.31760   0.32573   0.32865
 Alpha virt. eigenvalues --    0.33584   0.34139   0.35052   0.35134   0.35780
 Alpha virt. eigenvalues --    0.36000   0.36873   0.37361   0.37755   0.40575
 Alpha virt. eigenvalues --    0.41687   0.43280   0.44218   0.46152   0.46337
 Alpha virt. eigenvalues --    0.46633   0.48912   0.49425   0.50966   0.56733
 Alpha virt. eigenvalues --    0.67127   0.68727   0.70236   0.70324   0.70414
 Alpha virt. eigenvalues --    0.71701   0.72676   0.75841   0.77096   0.77777
 Alpha virt. eigenvalues --    0.78342   0.78944   0.79281   0.79605   0.79736
 Alpha virt. eigenvalues --    0.80645   0.81682   0.81793   0.84861   0.85656
 Alpha virt. eigenvalues --    0.87558   0.87724   0.87837   0.88905   0.93506
 Alpha virt. eigenvalues --    0.96424   0.97044   0.97290   0.99551   1.00281
 Alpha virt. eigenvalues --    1.01769   1.02976   1.04613   1.06433   1.06935
 Alpha virt. eigenvalues --    1.08005   1.08517   1.08550   1.08735   1.12016
 Alpha virt. eigenvalues --    1.13040   1.14512   1.15742   1.16637   1.17084
 Alpha virt. eigenvalues --    1.17895   1.18546   1.19488   1.19610   1.20400
 Alpha virt. eigenvalues --    1.21059   1.21902   1.22323   1.22574   1.22921
 Alpha virt. eigenvalues --    1.23489   1.23990   1.25569   1.25896   1.27208
 Alpha virt. eigenvalues --    1.27623   1.28054   1.30542   1.31174   1.33916
 Alpha virt. eigenvalues --    1.37932   1.40286   1.41867   1.46776   1.47338
 Alpha virt. eigenvalues --    1.52537   1.53379   1.56666   1.60159   1.65394
 Alpha virt. eigenvalues --    1.66477   1.66926   1.66984   1.67472   1.68387
 Alpha virt. eigenvalues --    1.71957   1.72451   1.73147   1.73321   1.73836
 Alpha virt. eigenvalues --    1.75375   1.80490   1.82181   1.93717   1.96989
 Alpha virt. eigenvalues --    1.99175   1.99656   2.04266   2.04368   2.06329
 Alpha virt. eigenvalues --    2.09964   2.12229   2.12953   2.14182   2.15830
 Alpha virt. eigenvalues --    2.18946   2.21445   2.21536   2.23520   2.24553
 Alpha virt. eigenvalues --    2.26711   2.26948   2.27054   2.28633   2.32671
 Alpha virt. eigenvalues --    2.33902   2.34988   2.35967   2.37008   2.37494
 Alpha virt. eigenvalues --    2.40637   2.42748   2.43197   2.44181   2.44465
 Alpha virt. eigenvalues --    2.45534   2.46719   2.57684   2.57898   2.57933
 Alpha virt. eigenvalues --    2.58433   2.59380   2.60666   2.67693   2.68662
 Alpha virt. eigenvalues --    2.69022   2.70016   2.78069   2.78763   2.80934
 Alpha virt. eigenvalues --    2.81213   2.83395   2.91557   2.91783   2.92055
 Alpha virt. eigenvalues --    2.92450   2.96069   2.99564   2.99657   3.04522
 Alpha virt. eigenvalues --    3.04625   3.06699   3.10229   3.14823   3.19740
 Alpha virt. eigenvalues --    3.23558   3.25063   3.28387   3.43164   3.52710
 Alpha virt. eigenvalues --    3.76823   4.13467   4.28677   4.38259   4.47796
 Alpha virt. eigenvalues --    4.50528   4.52781   4.56706   4.63446   4.71741
 Alpha virt. eigenvalues --    4.72852   4.76542   4.80881   4.89081   5.00946
 Alpha virt. eigenvalues --    5.08775
          Condensed to atoms (all electrons):
               1          2          3          4          5          6
     1  C    4.875637   0.542491  -0.045724  -0.028610  -0.045708   0.542420
     2  C    0.542491   4.931827   0.523106  -0.040205  -0.030060  -0.043847
     3  C   -0.045724   0.523106   4.918888   0.547830  -0.052978  -0.030059
     4  C   -0.028610  -0.040205   0.547830   4.821941   0.548819  -0.040235
     5  C   -0.045708  -0.030060  -0.052978   0.548819   4.918183   0.523158
     6  C    0.542420  -0.043847  -0.030059  -0.040235   0.523158   4.931970
     7  H    0.381290  -0.027934   0.002172   0.000219   0.002170  -0.027948
     8  H   -0.027611   0.382552  -0.027307   0.001556   0.000203   0.002329
     9  H    0.001928  -0.023991   0.368522  -0.019778   0.002553  -0.000059
    10  H    0.001924  -0.000059   0.002552  -0.019685   0.368558  -0.023976
    11  H   -0.027633   0.002328   0.000205   0.001565  -0.027327   0.382559
    12  N    0.000008   0.001506  -0.044518   0.243439  -0.044453   0.001504
    13  O   -0.000004  -0.000028   0.003734  -0.087831   0.003852   0.000772
    14  O   -0.000004   0.000771   0.004124  -0.087335   0.003639  -0.000027
    15  C   -0.000000   0.000000   0.000000  -0.000000   0.000000   0.000000
    16  C   -0.000000  -0.000000  -0.000000   0.000000   0.000000   0.000000
    17  C   -0.000000   0.000000   0.000000  -0.000000   0.000000   0.000000
    18  H    0.000000  -0.000000  -0.000000   0.000000   0.000000  -0.000000
    19  H    0.000000  -0.000000  -0.000000   0.000001  -0.000000   0.000000
    20  H    0.000000   0.000000   0.000000  -0.000000  -0.000000   0.000000
    21  H    0.000000  -0.000000  -0.000000   0.000000   0.000000  -0.000000
    22  H   -0.000000   0.000000   0.000000  -0.000000   0.000000  -0.000000
    23  H   -0.000000   0.000000   0.000000  -0.000000   0.000000  -0.000000
    24  H    0.000000  -0.000000  -0.000000   0.000000   0.000000  -0.000000
    25  C    0.000000  -0.000000  -0.000001   0.000000  -0.000000  -0.000000
    26  C   -0.000000   0.000000   0.000003  -0.000007   0.000000  -0.000000
    27  C    0.000000  -0.000000  -0.000009   0.000000  -0.000000  -0.000000
    28  H   -0.000000   0.000000   0.000000   0.000000  -0.000000   0.000000
    29  H    0.000000   0.000000  -0.000004  -0.000000  -0.000000  -0.000000
    30  H    0.000000  -0.000000  -0.000000   0.000000  -0.000000  -0.000000
    31  H    0.000000  -0.000000  -0.000008   0.000043  -0.000001   0.000000
    32  H    0.000000   0.000001   0.000014  -0.000002  -0.000000  -0.000000
    33  H   -0.000000   0.000000   0.000000   0.000000   0.000000   0.000000
    34  H   -0.000000   0.000000   0.000000   0.000000   0.000000   0.000000
               7          8          9         10         11         12
     1  C    0.381290  -0.027611   0.001928   0.001924  -0.027633   0.000008
     2  C   -0.027934   0.382552  -0.023991  -0.000059   0.002328   0.001506
     3  C    0.002172  -0.027307   0.368522   0.002552   0.000205  -0.044518
     4  C    0.000219   0.001556  -0.019778  -0.019685   0.001565   0.243439
     5  C    0.002170   0.000203   0.002553   0.368558  -0.027327  -0.044453
     6  C   -0.027948   0.002329  -0.000059  -0.023976   0.382559   0.001504
     7  H    0.446271  -0.001191  -0.000071  -0.000071  -0.001191   0.000002
     8  H   -0.001191   0.446545  -0.001112   0.000007  -0.000093  -0.000049
     9  H   -0.000071  -0.001112   0.392865  -0.000075   0.000007  -0.005334
    10  H   -0.000071   0.000007  -0.000075   0.392350  -0.001107  -0.005344
    11  H   -0.001191  -0.000093   0.000007  -0.001107   0.446696  -0.000049
    12  N    0.000002  -0.000049  -0.005334  -0.005344  -0.000049   5.738905
    13  O    0.000000   0.000000   0.000046   0.008930  -0.000001   0.314740
    14  O    0.000000  -0.000001   0.008877   0.000046   0.000000   0.310417
    15  C   -0.000000   0.000000  -0.000000  -0.000000   0.000000   0.000003
    16  C    0.000000   0.000000  -0.000000   0.000000  -0.000000  -0.000000
    17  C   -0.000000   0.000000  -0.000000  -0.000000   0.000000  -0.000000
    18  H    0.000000  -0.000000   0.000000   0.000000  -0.000000  -0.000000
    19  H    0.000000  -0.000000  -0.000000   0.000000  -0.000000  -0.000004
    20  H   -0.000000  -0.000000   0.000000  -0.000000   0.000000   0.000000
    21  H    0.000000  -0.000000   0.000000   0.000000  -0.000000   0.000000
    22  H   -0.000000  -0.000000   0.000000  -0.000000   0.000000   0.000000
    23  H   -0.000000   0.000000   0.000000  -0.000000   0.000000   0.000000
    24  H    0.000000  -0.000000   0.000000   0.000000  -0.000000  -0.000000
    25  C    0.000000  -0.000000   0.000002   0.000000  -0.000000   0.000000
    26  C   -0.000000   0.000000  -0.000002   0.000000   0.000000   0.000025
    27  C    0.000000  -0.000000   0.000009   0.000000  -0.000000   0.000004
    28  H    0.000000   0.000000  -0.000000   0.000000  -0.000000  -0.000000
    29  H    0.000000  -0.000000   0.000022   0.000000  -0.000000  -0.000001
    30  H    0.000000  -0.000000   0.000000   0.000000  -0.000000  -0.000000
    31  H    0.000000  -0.000000  -0.000001   0.000000  -0.000000  -0.000030
    32  H   -0.000000  -0.000000   0.000088   0.000000   0.000000   0.000002
    33  H   -0.000000   0.000000  -0.000000  -0.000000   0.000000  -0.000000
    34  H   -0.000000   0.000000  -0.000001  -0.000000   0.000000   0.000000
              13         14         15         16         17         18
     1  C   -0.000004  -0.000004  -0.000000  -0.000000  -0.000000   0.000000
     2  C   -0.000028   0.000771   0.000000  -0.000000   0.000000  -0.000000
     3  C    0.003734   0.004124   0.000000  -0.000000   0.000000  -0.000000
     4  C   -0.087831  -0.087335  -0.000000   0.000000  -0.000000   0.000000
     5  C    0.003852   0.003639   0.000000   0.000000   0.000000   0.000000
     6  C    0.000772  -0.000027   0.000000   0.000000   0.000000  -0.000000
     7  H    0.000000   0.000000  -0.000000   0.000000  -0.000000   0.000000
     8  H    0.000000  -0.000001   0.000000   0.000000   0.000000  -0.000000
     9  H    0.000046   0.008877  -0.000000  -0.000000  -0.000000   0.000000
    10  H    0.008930   0.000046  -0.000000   0.000000  -0.000000   0.000000
    11  H   -0.000001   0.000000   0.000000  -0.000000   0.000000  -0.000000
    12  N    0.314740   0.310417   0.000003  -0.000000  -0.000000  -0.000000
    13  O    8.301699  -0.087619  -0.000000  -0.000000  -0.000000  -0.000000
    14  O   -0.087619   8.305370  -0.000108   0.000000  -0.000000   0.000000
    15  C   -0.000000  -0.000108   5.083664   0.352128  -0.057306   0.395398
    16  C   -0.000000   0.000000   0.352128   5.060163   0.341116  -0.042534
    17  C   -0.000000  -0.000000  -0.057306   0.341116   5.097644  -0.002898
    18  H   -0.000000   0.000000   0.395398  -0.042534  -0.002898   0.572667
    19  H    0.000000   0.000368   0.397548  -0.040863  -0.002883  -0.030998
    20  H    0.000000   0.000000  -0.043835   0.398269  -0.040332  -0.003035
    21  H   -0.000000  -0.000000  -0.043302   0.398859  -0.039899   0.004616
    22  H    0.000000  -0.000000  -0.003594  -0.038612   0.391614   0.000151
    23  H   -0.000000  -0.000000  -0.003729  -0.038940   0.391055   0.002627
    24  H   -0.000000   0.000000   0.004408  -0.036090   0.393448  -0.000058
    25  C    0.000000   0.000069   0.356852  -0.051884   0.004074  -0.042292
    26  C    0.000000  -0.001198  -0.050836   0.003956  -0.000084  -0.003207
    27  C   -0.000000  -0.000040   0.004051  -0.000086   0.000001  -0.000051
    28  H    0.000000   0.000000  -0.042578  -0.003319  -0.000054  -0.002862
    29  H    0.000000   0.000244  -0.040569  -0.003373  -0.000050   0.004479
    30  H   -0.000000   0.000014  -0.003189  -0.000064  -0.000000   0.002380
    31  H   -0.000006   0.003872  -0.003192  -0.000048  -0.000000   0.000245
    32  H   -0.000000   0.000188  -0.000071  -0.000000  -0.000000  -0.000001
    33  H   -0.000000   0.000000  -0.000075  -0.000000  -0.000000   0.000013
    34  H    0.000000  -0.000002  -0.000086   0.000001  -0.000000   0.000001
              19         20         21         22         23         24
     1  C    0.000000   0.000000   0.000000  -0.000000  -0.000000   0.000000
     2  C   -0.000000   0.000000  -0.000000   0.000000   0.000000  -0.000000
     3  C   -0.000000   0.000000  -0.000000   0.000000   0.000000  -0.000000
     4  C    0.000001  -0.000000   0.000000  -0.000000  -0.000000   0.000000
     5  C   -0.000000  -0.000000   0.000000   0.000000   0.000000   0.000000
     6  C    0.000000   0.000000  -0.000000  -0.000000  -0.000000  -0.000000
     7  H    0.000000  -0.000000   0.000000  -0.000000  -0.000000   0.000000
     8  H   -0.000000  -0.000000  -0.000000  -0.000000   0.000000  -0.000000
     9  H   -0.000000   0.000000   0.000000   0.000000   0.000000   0.000000
    10  H    0.000000  -0.000000   0.000000  -0.000000  -0.000000   0.000000
    11  H   -0.000000   0.000000  -0.000000   0.000000   0.000000  -0.000000
    12  N   -0.000004   0.000000   0.000000   0.000000   0.000000  -0.000000
    13  O    0.000000   0.000000  -0.000000   0.000000  -0.000000  -0.000000
    14  O    0.000368   0.000000  -0.000000  -0.000000  -0.000000   0.000000
    15  C    0.397548  -0.043835  -0.043302  -0.003594  -0.003729   0.004408
    16  C   -0.040863   0.398269   0.398859  -0.038612  -0.038940  -0.036090
    17  C   -0.002883  -0.040332  -0.039899   0.391614   0.391055   0.393448
    18  H   -0.030998  -0.003035   0.004616   0.000151   0.002627  -0.000058
    19  H    0.547584   0.004482  -0.002975   0.002570   0.000155  -0.000055
    20  H    0.004482   0.570673  -0.032205   0.004246  -0.002913  -0.002525
    21  H   -0.002975  -0.032205   0.565744  -0.002903   0.004240  -0.002509
    22  H    0.002570   0.004246  -0.002903   0.545839  -0.029029  -0.027682
    23  H    0.000155  -0.002913   0.004240  -0.029029   0.551080  -0.027930
    24  H   -0.000055  -0.002525  -0.002509  -0.027682  -0.027930   0.542768
    25  C   -0.039906  -0.003111  -0.003190  -0.000070  -0.000070  -0.000088
    26  C   -0.003213  -0.000068  -0.000064  -0.000001  -0.000001   0.000001
    27  C   -0.000043  -0.000000  -0.000000  -0.000000  -0.000000  -0.000000
    28  H    0.004399   0.002455   0.000239  -0.000001   0.000014   0.000001
    29  H   -0.002827   0.000238   0.002424   0.000013  -0.000001   0.000001
    30  H    0.000247   0.000017  -0.000003   0.000000  -0.000002   0.000000
    31  H    0.002114  -0.000004   0.000017  -0.000002   0.000000   0.000000
    32  H    0.000013   0.000000  -0.000002   0.000000  -0.000000  -0.000000
    33  H   -0.000002  -0.000002   0.000000  -0.000000   0.000000  -0.000000
    34  H    0.000001   0.000000   0.000000  -0.000000  -0.000000   0.000000
              25         26         27         28         29         30
     1  C    0.000000  -0.000000   0.000000  -0.000000   0.000000   0.000000
     2  C   -0.000000   0.000000  -0.000000   0.000000   0.000000  -0.000000
     3  C   -0.000001   0.000003  -0.000009   0.000000  -0.000004  -0.000000
     4  C    0.000000  -0.000007   0.000000   0.000000  -0.000000   0.000000
     5  C   -0.000000   0.000000  -0.000000  -0.000000  -0.000000  -0.000000
     6  C   -0.000000  -0.000000  -0.000000   0.000000  -0.000000  -0.000000
     7  H    0.000000  -0.000000   0.000000   0.000000   0.000000   0.000000
     8  H   -0.000000   0.000000  -0.000000   0.000000  -0.000000  -0.000000
     9  H    0.000002  -0.000002   0.000009  -0.000000   0.000022   0.000000
    10  H    0.000000   0.000000   0.000000   0.000000   0.000000   0.000000
    11  H   -0.000000   0.000000  -0.000000  -0.000000  -0.000000  -0.000000
    12  N    0.000000   0.000025   0.000004  -0.000000  -0.000001  -0.000000
    13  O    0.000000   0.000000  -0.000000   0.000000   0.000000  -0.000000
    14  O    0.000069  -0.001198  -0.000040   0.000000   0.000244   0.000014
    15  C    0.356852  -0.050836   0.004051  -0.042578  -0.040569  -0.003189
    16  C   -0.051884   0.003956  -0.000086  -0.003319  -0.003373  -0.000064
    17  C    0.004074  -0.000084   0.000001  -0.000054  -0.000050  -0.000000
    18  H   -0.042292  -0.003207  -0.000051  -0.002862   0.004479   0.002380
    19  H   -0.039906  -0.003213  -0.000043   0.004399  -0.002827   0.000247
    20  H   -0.003111  -0.000068  -0.000000   0.002455   0.000238   0.000017
    21  H   -0.003190  -0.000064  -0.000000   0.000239   0.002424  -0.000003
    22  H   -0.000070  -0.000001  -0.000000  -0.000001   0.000013   0.000000
    23  H   -0.000070  -0.000001  -0.000000   0.000014  -0.000001  -0.000002
    24  H   -0.000088   0.000001  -0.000000   0.000001   0.000001   0.000000
    25  C    5.075613   0.353110  -0.057190   0.395257   0.395504  -0.044466
    26  C    0.353110   5.070077   0.340061  -0.042893  -0.040861   0.396983
    27  C   -0.057190   0.340061   5.097609  -0.002889  -0.003054  -0.040850
    28  H    0.395257  -0.042893  -0.002889   0.578886  -0.032753  -0.003056
    29  H    0.395504  -0.040861  -0.003054  -0.032753   0.566015   0.004606
    30  H   -0.044466   0.396983  -0.040850  -0.003056   0.004606   0.573215
    31  H   -0.040617   0.398762  -0.037806   0.004396  -0.003013  -0.030491
    32  H   -0.003826  -0.038795   0.390071   0.000162   0.002660   0.004332
    33  H   -0.003659  -0.039183   0.390470   0.002680   0.000166  -0.002960
    34  H    0.004398  -0.035786   0.393835  -0.000062  -0.000057  -0.002515
              31         32         33         34
     1  C    0.000000   0.000000  -0.000000  -0.000000
     2  C   -0.000000   0.000001   0.000000   0.000000
     3  C   -0.000008   0.000014   0.000000   0.000000
     4  C    0.000043  -0.000002   0.000000   0.000000
     5  C   -0.000001  -0.000000   0.000000   0.000000
     6  C    0.000000  -0.000000   0.000000   0.000000
     7  H    0.000000  -0.000000  -0.000000  -0.000000
     8  H   -0.000000  -0.000000   0.000000   0.000000
     9  H   -0.000001   0.000088  -0.000000  -0.000001
    10  H    0.000000   0.000000  -0.000000  -0.000000
    11  H   -0.000000   0.000000   0.000000   0.000000
    12  N   -0.000030   0.000002  -0.000000   0.000000
    13  O   -0.000006  -0.000000  -0.000000   0.000000
    14  O    0.003872   0.000188   0.000000  -0.000002
    15  C   -0.003192  -0.000071  -0.000075  -0.000086
    16  C   -0.000048  -0.000000  -0.000000   0.000001
    17  C   -0.000000  -0.000000  -0.000000  -0.000000
    18  H    0.000245  -0.000001   0.000013   0.000001
    19  H    0.002114   0.000013  -0.000002   0.000001
    20  H   -0.000004   0.000000  -0.000002   0.000000
    21  H    0.000017  -0.000002   0.000000   0.000000
    22  H   -0.000002   0.000000  -0.000000  -0.000000
    23  H    0.000000  -0.000000   0.000000  -0.000000
    24  H    0.000000  -0.000000  -0.000000   0.000000
    25  C   -0.040617  -0.003826  -0.003659   0.004398
    26  C    0.398762  -0.038795  -0.039183  -0.035786
    27  C   -0.037806   0.390071   0.390470   0.393835
    28  H    0.004396   0.000162   0.002680  -0.000062
    29  H   -0.003013   0.002660   0.000166  -0.000057
    30  H   -0.030491   0.004332  -0.002960  -0.002515
    31  H    0.530584  -0.002895   0.004051  -0.002369
    32  H   -0.002895   0.556285  -0.030009  -0.027990
    33  H    0.004051  -0.030009   0.556246  -0.028089
    34  H   -0.002369  -0.027990  -0.028089   0.542496
 Mulliken charges:
               1
     1  C   -0.170404
     2  C   -0.218456
     3  C   -0.170540
     4  C    0.158274
     5  C   -0.170608
     6  C   -0.218562
     7  H    0.226281
     8  H    0.224172
     9  H    0.275507
    10  H    0.275950
    11  H    0.224042
    12  N    0.489227
    13  O   -0.458286
    14  O   -0.461665
    15  C   -0.301581
    16  C   -0.298679
    17  C   -0.475443
    18  H    0.145359
    19  H    0.164290
    20  H    0.147649
    21  H    0.150914
    22  H    0.157461
    23  H    0.153444
    24  H    0.156311
    25  C   -0.294509
    26  C   -0.306782
    27  C   -0.474091
    28  H    0.141979
    29  H    0.150192
    30  H    0.145803
    31  H    0.176399
    32  H    0.149776
    33  H    0.150351
    34  H    0.156225
 Sum of Mulliken charges =  -0.00000
 Mulliken charges with hydrogens summed into heavy atoms:
               1
     1  C    0.055877
     2  C    0.005715
     3  C    0.104966
     4  C    0.158274
     5  C    0.105342
     6  C    0.005480
    12  N    0.489227
    13  O   -0.458286
    14  O   -0.461665
    15  C    0.008068
    16  C   -0.000116
    17  C   -0.008227
    25  C   -0.002338
    26  C    0.015419
    27  C   -0.017739
 Electronic spatial extent (au):  <R**2>=           6516.4665
 Charge=             -0.0000 electrons
 Dipole moment (field-independent basis, Debye):
    X=              4.7869    Y=              1.5043    Z=              2.0551  Tot=              5.4222
 Quadrupole moment (field-independent basis, Debye-Ang):
   XX=            -71.1903   YY=            -97.5544   ZZ=            -92.6277
   XY=              0.7924   XZ=              3.4823   YZ=              0.6688
 Traceless Quadrupole moment (field-independent basis, Debye-Ang):
   XX=             15.9338   YY=            -10.4303   ZZ=             -5.5035
   XY=              0.7924   XZ=              3.4823   YZ=              0.6688
 Octapole moment (field-independent basis, Debye-Ang**2):
  XXX=            150.9980  YYY=            -11.5745  ZZZ=              3.6950  XYY=              1.9211
  XXY=              7.4076  XXZ=              1.2624  XZZ=             14.7353  YZZ=              7.4570
  YYZ=              2.7872  XYZ=             13.3707
 Hexadecapole moment (field-independent basis, Debye-Ang**3):
 XXXX=          -6624.5422 YYYY=          -1139.0509 ZZZZ=           -623.1048 XXXY=            -27.2961
 XXXZ=             40.0437 YYYX=            -17.5640 YYYZ=             10.8645 ZZZX=             13.2726
 ZZZY=             19.9369 XXYY=          -1447.4365 XXZZ=          -1276.7384 YYZZ=           -292.8884
 XXYZ=             74.7372 YYXZ=              1.8086 ZZXY=             23.3989
 N-N= 9.143128368122D+02 E-N=-3.392136936812D+03  KE= 6.679525388719D+02
 Leave Link  601 at Thu May  6 10:49:30 2021, MaxMem=   524288000 cpu:               0.8 elap:               0.9
 (Enter /opt/gaussian/g16_legacy/l9999.exe)
 1\1\GINC-TRUENO90\SP\RMP2-FC\6-31G(d)\C12H19N1O2\JRAMOS\06-May-2021\0\
 \#p 6-31g* mp2\\Input file generated by CHIRIPA (05-May-2021 14:55:20)
 \\0,1\C,0,1.914143,0.,0.\C,0,1.214143,1.211,0.\C,0,-0.183857,1.223,0.\
 C,0,-0.852857,0.,0.\C,0,-0.183857,-1.223,0.\C,0,1.214143,-1.211,0.\H,0
 ,3.000143,0.,0.\H,0,1.755143,2.153,0.\H,0,-0.750857,2.146,0.\H,0,-0.75
 0857,-2.146,0.\H,0,1.755143,-2.153,0.\N,0,-2.332857,0.,0.\O,0,-2.89885
 7,-1.091,0.\O,0,-2.898857,1.091,0.\C,0,-6.432852,3.50497,-0.828803\C,0
 ,-6.813937,4.612344,0.154295\C,0,-7.997375,4.231249,1.044259\H,0,-7.30
 2468,3.264696,-1.455684\H,0,-6.191099,2.592351,-0.266595\H,0,-7.053561
 ,5.523001,-0.409532\H,0,-5.943256,4.850143,0.77878\H,0,-7.765267,3.337
 146,1.631886\H,0,-8.881881,4.013827,0.436823\H,0,-8.252884,5.037145,1.
 739318\C,0,-5.251407,3.871037,-1.725414\C,0,-4.870321,2.763663,-2.7085
 13\C,0,-3.686883,3.144758,-3.598477\H,0,-5.493159,4.783655,-2.287622\H
 ,0,-4.38179,4.111311,-1.098533\H,0,-5.741002,2.525864,-3.332998\H,0,-4
 .630697,1.853006,-2.144686\H,0,-2.802377,3.36218,-2.991041\H,0,-3.9189
 91,4.038861,-4.186104\H,0,-3.431374,2.338862,-4.293535\\Version=EM64L-
 G16RevA.03\State=1-A\HF=-669.5365498\MP2=-671.6279796\RMSD=6.652e-09\P
 G=C01 [X(C12H19N1O2)]\\@


 PATIENCE IS THE ABILITY TO IDLE YOUR MOTOR WHEN
 YOU FEEL LIKE STRIPPING YOUR GEARS.
 Job cpu time:       0 days  0 hours  3 minutes 57.5 seconds.
 Elapsed time:       0 days  0 hours  2 minutes  2.5 seconds.
 File lengths (MBytes):  RWF=     43 Int=      0 D2E=      0 Chk=      6 Scr=      1
 Normal termination of Gaussian 16 at Thu May  6 10:49:30 2021.
