 Entering Gaussian System, Link 0=/opt/gaussian/g16_legacy/g16
 Input=gaussian_00120_2_1.com
 Output=gaussian_00120_2_1.log
 Initial command:
 /opt/gaussian/g16_legacy/l1.exe "/scratch-local/jramos/2589471/Gau-18349.inp" -scrdir="/scratch-local/jramos/2589471/"
 Entering Link 1 = /opt/gaussian/g16_legacy/l1.exe PID=     18350.
  
 Copyright (c) 1988,1990,1992,1993,1995,1998,2003,2009,2016,
            Gaussian, Inc.  All Rights Reserved.
  
 This is part of the Gaussian(R) 16 program.  It is based on
 the Gaussian(R) 09 system (copyright 2009, Gaussian, Inc.),
 the Gaussian(R) 03 system (copyright 2003, Gaussian, Inc.),
 the Gaussian(R) 98 system (copyright 1998, Gaussian, Inc.),
 the Gaussian(R) 94 system (copyright 1995, Gaussian, Inc.),
 the Gaussian 92(TM) system (copyright 1992, Gaussian, Inc.),
 the Gaussian 90(TM) system (copyright 1990, Gaussian, Inc.),
 the Gaussian 88(TM) system (copyright 1988, Gaussian, Inc.),
 the Gaussian 86(TM) system (copyright 1986, Carnegie Mellon
 University), and the Gaussian 82(TM) system (copyright 1983,
 Carnegie Mellon University). Gaussian is a federally registered
 trademark of Gaussian, Inc.
  
 This software contains proprietary and confidential information,
 including trade secrets, belonging to Gaussian, Inc.
  
 This software is provided under written license and may be
 used, copied, transmitted, or stored only in accord with that
 written license.
  
 The following legend is applicable only to US Government
 contracts under FAR:
  
                    RESTRICTED RIGHTS LEGEND
  
 Use, reproduction and disclosure by the US Government is
 subject to restrictions as set forth in subparagraphs (a)
 and (c) of the Commercial Computer Software - Restricted
 Rights clause in FAR 52.227-19.
  
 Gaussian, Inc.
 340 Quinnipiac St., Bldg. 40, Wallingford CT 06492
  
  
 ---------------------------------------------------------------
 Warning -- This program may not be used in any manner that
 competes with the business of Gaussian, Inc. or will provide
 assistance to any competitor of Gaussian, Inc.  The licensee
 of this program is prohibited from giving any competitor of
 Gaussian, Inc. access to this program.  By using this program,
 the user acknowledges that Gaussian, Inc. is engaged in the
 business of creating and licensing software in the field of
 computational chemistry and represents and warrants to the
 licensee that it is not a competitor of Gaussian, Inc. and that
 it will not use this program in any manner prohibited above.
 ---------------------------------------------------------------
  

 Cite this work as:
 Gaussian 16, Revision A.03,
 M. J. Frisch, G. W. Trucks, H. B. Schlegel, G. E. Scuseria, 
 M. A. Robb, J. R. Cheeseman, G. Scalmani, V. Barone, 
 G. A. Petersson, H. Nakatsuji, X. Li, M. Caricato, A. V. Marenich, 
 J. Bloino, B. G. Janesko, R. Gomperts, B. Mennucci, H. P. Hratchian, 
 J. V. Ortiz, A. F. Izmaylov, J. L. Sonnenberg, D. Williams-Young, 
 F. Ding, F. Lipparini, F. Egidi, J. Goings, B. Peng, A. Petrone, 
 T. Henderson, D. Ranasinghe, V. G. Zakrzewski, J. Gao, N. Rega, 
 G. Zheng, W. Liang, M. Hada, M. Ehara, K. Toyota, R. Fukuda, 
 J. Hasegawa, M. Ishida, T. Nakajima, Y. Honda, O. Kitao, H. Nakai, 
 T. Vreven, K. Throssell, J. A. Montgomery, Jr., J. E. Peralta, 
 F. Ogliaro, M. J. Bearpark, J. J. Heyd, E. N. Brothers, K. N. Kudin, 
 V. N. Staroverov, T. A. Keith, R. Kobayashi, J. Normand, 
 K. Raghavachari, A. P. Rendell, J. C. Burant, S. S. Iyengar, 
 J. Tomasi, M. Cossi, J. M. Millam, M. Klene, C. Adamo, R. Cammi, 
 J. W. Ochterski, R. L. Martin, K. Morokuma, O. Farkas, 
 J. B. Foresman, and D. J. Fox, Gaussian, Inc., Wallingford CT, 2016.
 
 ******************************************
 Gaussian 16:  EM64L-G16RevA.03 25-Dec-2016
                 5-May-2021 
 ******************************************
 %chk=gaussian_00120_2_1.chk
 %nproc=2
 Will use up to    2 processors via shared memory.
 %mem=4000Mb
 -------------
 #p 6-31g* mp2
 -------------
 1/38=1,172=1/1;
 2/12=2,17=6,18=5,40=1/2;
 3/5=1,6=6,7=1,11=9,25=1,30=1/1,2,3;
 4//1;
 5/5=2,38=5/2;
 8/10=2/1;
 9/16=-3/6;
 6/7=2,8=2,9=2,10=2/1;
 99/5=1,9=1/99;
 Leave Link    1 at Wed May  5 23:40:23 2021, MaxMem=   524288000 cpu:               0.0 elap:               0.1
 (Enter /opt/gaussian/g16_legacy/l101.exe)
 ------------------------------------------------------
 Input file generated by CHIRIPA (05-May-2021 14:55:18)
 ------------------------------------------------------
 Symbolic Z-matrix:
 Charge =  0 Multiplicity = 1
 C                     1.91414   0.        0. 
 C                     1.21414   1.211     0. 
 C                    -0.18386   1.223     0. 
 C                    -0.85286   0.        0. 
 C                    -0.18386  -1.223     0. 
 C                     1.21414  -1.211     0. 
 H                     3.00014   0.        0. 
 H                     1.75514   2.153     0. 
 H                    -0.75086   2.146     0. 
 H                    -0.75086  -2.146     0. 
 H                     1.75514  -2.153     0. 
 N                    -2.33286   0.        0. 
 O                    -2.89886  -1.091     0. 
 O                    -2.89886   1.091     0. 
 C                    -2.13204   3.68446  -5.10607 
 C                    -1.30312   4.03135  -3.86893 
 C                    -1.91033   3.4824   -2.57752 
 H                    -3.14938   4.07971  -4.9806 
 H                    -2.22794   2.59235  -5.18019 
 H                    -1.20764   5.12244  -3.79793 
 H                    -0.28758   3.6354   -3.99744 
 H                    -1.99043   2.39146  -2.62281 
 H                    -2.91572   3.88695  -2.42217 
 H                    -1.30174   3.74198  -1.70569 
 C                    -1.53783   4.22637  -6.40491 
 C                    -2.36675   3.87948  -7.64206 
 C                    -1.75954   4.42844  -8.93347 
 H                    -1.44193   5.31848  -6.33079 
 H                    -0.52049   3.83112  -6.53038 
 H                    -3.38229   4.27543  -7.51355 
 H                    -2.46223   2.7884   -7.71305 
 H                    -0.75415   4.02388  -9.08881 
 H                    -1.67944   5.51937  -8.88817 
 H                    -2.36814   4.16885  -9.8053 
 
 ITRead=  0  0  0  0  0  0  0  0  0  0  0  0  0  0  0  0  0  0  0  0
 ITRead=  0  0  0  0  0  0  0  0  0  0  0  0  0  0
 MicOpt= -1 -1 -1 -1 -1 -1 -1 -1 -1 -1 -1 -1 -1 -1 -1 -1 -1 -1 -1 -1
 MicOpt= -1 -1 -1 -1 -1 -1 -1 -1 -1 -1 -1 -1 -1 -1
 NAtoms=     34 NQM=       34 NQMF=       0 NMMI=      0 NMMIF=      0
                NMic=       0 NMicF=      0.
                    Isotopes and Nuclear Properties:
 (Nuclear quadrupole moments (NQMom) in fm**2, nuclear magnetic moments (NMagM)
  in nuclear magnetons)

  Atom         1           2           3           4           5           6           7           8           9          10
 IAtWgt=          12          12          12          12          12          12           1           1           1           1
 AtmWgt=  12.0000000  12.0000000  12.0000000  12.0000000  12.0000000  12.0000000   1.0078250   1.0078250   1.0078250   1.0078250
 NucSpn=           0           0           0           0           0           0           1           1           1           1
 AtZEff=  -0.0000000  -0.0000000  -0.0000000  -0.0000000  -0.0000000  -0.0000000  -0.0000000  -0.0000000  -0.0000000  -0.0000000
 NQMom=    0.0000000   0.0000000   0.0000000   0.0000000   0.0000000   0.0000000   0.0000000   0.0000000   0.0000000   0.0000000
 NMagM=    0.0000000   0.0000000   0.0000000   0.0000000   0.0000000   0.0000000   2.7928460   2.7928460   2.7928460   2.7928460
 AtZNuc=   6.0000000   6.0000000   6.0000000   6.0000000   6.0000000   6.0000000   1.0000000   1.0000000   1.0000000   1.0000000

  Atom        11          12          13          14          15          16          17          18          19          20
 IAtWgt=           1          14          16          16          12          12          12           1           1           1
 AtmWgt=   1.0078250  14.0030740  15.9949146  15.9949146  12.0000000  12.0000000  12.0000000   1.0078250   1.0078250   1.0078250
 NucSpn=           1           2           0           0           0           0           0           1           1           1
 AtZEff=  -0.0000000  -0.0000000  -0.0000000  -0.0000000  -0.0000000  -0.0000000  -0.0000000  -0.0000000  -0.0000000  -0.0000000
 NQMom=    0.0000000   2.0440000   0.0000000   0.0000000   0.0000000   0.0000000   0.0000000   0.0000000   0.0000000   0.0000000
 NMagM=    2.7928460   0.4037610   0.0000000   0.0000000   0.0000000   0.0000000   0.0000000   2.7928460   2.7928460   2.7928460
 AtZNuc=   1.0000000   7.0000000   8.0000000   8.0000000   6.0000000   6.0000000   6.0000000   1.0000000   1.0000000   1.0000000

  Atom        21          22          23          24          25          26          27          28          29          30
 IAtWgt=           1           1           1           1          12          12          12           1           1           1
 AtmWgt=   1.0078250   1.0078250   1.0078250   1.0078250  12.0000000  12.0000000  12.0000000   1.0078250   1.0078250   1.0078250
 NucSpn=           1           1           1           1           0           0           0           1           1           1
 AtZEff=  -0.0000000  -0.0000000  -0.0000000  -0.0000000  -0.0000000  -0.0000000  -0.0000000  -0.0000000  -0.0000000  -0.0000000
 NQMom=    0.0000000   0.0000000   0.0000000   0.0000000   0.0000000   0.0000000   0.0000000   0.0000000   0.0000000   0.0000000
 NMagM=    2.7928460   2.7928460   2.7928460   2.7928460   0.0000000   0.0000000   0.0000000   2.7928460   2.7928460   2.7928460
 AtZNuc=   1.0000000   1.0000000   1.0000000   1.0000000   6.0000000   6.0000000   6.0000000   1.0000000   1.0000000   1.0000000

  Atom        31          32          33          34
 IAtWgt=           1           1           1           1
 AtmWgt=   1.0078250   1.0078250   1.0078250   1.0078250
 NucSpn=           1           1           1           1
 AtZEff=  -0.0000000  -0.0000000  -0.0000000  -0.0000000
 NQMom=    0.0000000   0.0000000   0.0000000   0.0000000
 NMagM=    2.7928460   2.7928460   2.7928460   2.7928460
 AtZNuc=   1.0000000   1.0000000   1.0000000   1.0000000
 Leave Link  101 at Wed May  5 23:40:24 2021, MaxMem=   524288000 cpu:               0.1 elap:               0.1
 (Enter /opt/gaussian/g16_legacy/l202.exe)
                          Input orientation:                          
 ---------------------------------------------------------------------
 Center     Atomic      Atomic             Coordinates (Angstroms)
 Number     Number       Type             X           Y           Z
 ---------------------------------------------------------------------
      1          6           0        1.914143    0.000000    0.000000
      2          6           0        1.214143    1.211000    0.000000
      3          6           0       -0.183857    1.223000    0.000000
      4          6           0       -0.852857    0.000000    0.000000
      5          6           0       -0.183857   -1.223000    0.000000
      6          6           0        1.214143   -1.211000    0.000000
      7          1           0        3.000143    0.000000    0.000000
      8          1           0        1.755143    2.153000    0.000000
      9          1           0       -0.750857    2.146000    0.000000
     10          1           0       -0.750857   -2.146000    0.000000
     11          1           0        1.755143   -2.153000    0.000000
     12          7           0       -2.332857    0.000000    0.000000
     13          8           0       -2.898857   -1.091000    0.000000
     14          8           0       -2.898857    1.091000    0.000000
     15          6           0       -2.132040    3.684461   -5.106075
     16          6           0       -1.303118    4.031353   -3.868925
     17          6           0       -1.910332    3.482395   -2.577519
     18          1           0       -3.149380    4.079710   -4.980603
     19          1           0       -2.227942    2.592351   -5.180192
     20          1           0       -1.207642    5.122435   -3.797933
     21          1           0       -0.287579    3.635398   -3.997440
     22          1           0       -1.990429    2.391462   -2.622813
     23          1           0       -2.915720    3.886949   -2.422172
     24          1           0       -1.301735    3.741980   -1.705691
     25          6           0       -1.537830    4.226370   -6.404911
     26          6           0       -2.366752    3.879478   -7.642060
     27          6           0       -1.759538    4.428436   -8.933466
     28          1           0       -1.441928    5.318480   -6.330794
     29          1           0       -0.520490    3.831121   -6.530383
     30          1           0       -3.382291    4.275433   -7.513546
     31          1           0       -2.462228    2.788396   -7.713053
     32          1           0       -0.754150    4.023882   -9.088814
     33          1           0       -1.679441    5.519369   -8.888173
     34          1           0       -2.368135    4.168851   -9.805295
 ---------------------------------------------------------------------
                    Distance matrix (angstroms):
                    1          2          3          4          5
     1  C    0.000000
     2  C    1.398757   0.000000
     3  C    2.428443   1.398052   0.000000
     4  C    2.767000   2.395623   1.394019   0.000000
     5  C    2.428443   2.806913   2.446000   1.394019   0.000000
     6  C    1.398757   2.422000   2.806913   2.395623   1.398052
     7  H    1.086000   2.157850   3.410804   3.853000   3.410804
     8  H    2.158863   1.086299   2.150493   3.381874   3.893212
     9  H    3.421628   2.176109   1.083244   2.148423   3.416380
    10  H    3.421628   3.889817   3.416380   2.148423   1.083244
    11  H    2.158863   3.407224   3.893212   3.381874   2.150493
    12  N    4.247000   3.748030   2.472636   1.480000   2.472636
    13  O    4.935104   4.713382   3.567327   2.318706   2.718207
    14  O    4.935104   4.114750   2.718207   2.318706   3.567327
    15  C    7.484574   6.586877   5.993848   6.425229   7.345107
    16  C    6.447570   5.409212   4.910007   5.605633   6.620389
    17  C    5.779039   4.643833   3.837862   4.459701   5.636050
    18  H    8.190831   7.216387   6.462316   6.835529   7.856174
    19  H    7.121204   6.371065   5.734788   5.953615   6.750524
    20  H    7.099942   5.965623   5.538775   6.386666   7.465720
    21  H    5.834657   4.910438   4.670112   5.432788   6.292401
    22  H    5.276734   4.306033   3.392367   3.727239   4.817384
    23  H    6.656040   5.484833   4.519581   5.023016   6.280252
    24  H    5.220505   3.955361   3.241033   4.136821   5.367500
    25  C    8.414345   7.595308   7.202524   7.704173   8.517732
    26  C    9.580057   8.851252   8.379916   8.703063   9.444649
    27  C   10.626090   9.949949   9.621040  10.011989  10.687765
    28  H    8.923474   8.000316   7.644256   8.289281   9.189813
    29  H    7.953039   7.247061   7.039994   7.578513   8.264585
    30  H   10.138289   9.325842   8.717838   9.007260   9.844598
    31  H    9.296180   8.688790   8.193450   8.358015   8.987406
    32  H   10.291645   9.715607   9.527681   9.940217  10.510069
    33  H   11.062409  10.292448   9.984747  10.495060  11.255929
    34  H   11.483076  10.850134  10.468664  10.761933  11.401181
                    6          7          8          9         10
     6  C    0.000000
     7  H    2.157850   0.000000
     8  H    3.407224   2.487053   0.000000
     9  H    3.889817   4.321495   2.506010   0.000000
    10  H    2.176109   4.321495   4.976087   4.292000   0.000000
    11  H    1.086299   2.487053   4.306000   4.976087   2.506010
    12  N    3.748030   5.333000   4.620298   2.666091   2.666091
    13  O    4.114750   5.999040   5.673028   3.884852   2.393100
    14  O    4.713382   5.999040   4.773632   2.393100   3.884852
    15  C    7.825246   8.123211   6.597542   5.508769   7.872353
    16  C    6.984801   7.052549   5.277286   4.339139   7.309806
    17  C    6.199508   6.548545   4.674035   3.126330   6.298160
    18  H    8.475751   8.903206   7.250722   5.856497   8.325790
    19  H    7.290255   7.803047   6.549228   5.405127   7.174130
    20  H    7.771855   7.639967   5.658616   4.846866   8.213592
    21  H    6.459278   6.324932   4.727552   4.290974   7.044055
    22  H    5.488730   6.124055   4.578790   2.911346   5.385559
    23  H    6.993695   7.481492   5.539897   3.685709   6.852009
    24  H    5.811285   5.951298   3.844313   2.400000   6.154767
    25  C    8.840884   8.915060   7.494359   6.780129   9.069141
    26  C    9.855803  10.112121   8.852786   8.001071   9.865018
    27  C   10.975101  11.048639   9.865972   9.275439  11.137660
    28  H    9.474586   9.386010   7.766626   7.114855   9.811982
    29  H    8.430767   8.349745   7.116214   6.748230   8.855786
    30  H   10.376971  10.745611   9.346193   8.240892  10.228031
    31  H    9.434090   9.854128   8.813690   7.926705   9.314947
    32  H   10.671678  10.625106   9.612663   9.280786  10.985172
    33  H   11.518260  11.461307  10.105861   9.552042  11.773690
    34  H   11.743906  11.930697  10.826305  10.141564  11.774410
                   11         12         13         14         15
    11  H    0.000000
    12  N    4.620298   0.000000
    13  O    4.773632   1.229080   0.000000
    14  O    5.673028   1.229080   2.182000   0.000000
    15  C    8.675145   6.299808   7.033139   5.778066   0.000000
    16  C    7.909979   5.681615   6.614640   5.114747   1.529047
    17  C    7.199791   4.353069   5.341978   3.652336   2.546288
    18  H    9.365224   6.489773   7.183691   5.813911   1.098611
    19  H    8.075748   5.793590   6.391525   5.434940   1.098815
    20  H    8.725500   6.475318   7.476047   5.791111   2.152560
    21  H    7.325148   5.777440   6.718418   5.410385   2.152560
    22  H    6.446751   3.565879   4.453306   3.065223   2.803300
    23  H    8.010297   4.616819   5.535989   3.699261   2.803300
    24  H    6.855995   4.239694   5.368228   3.533819   3.500761
    25  C    9.620962   7.714736   8.435028   7.259878   1.527654
    26  C   10.572696   8.570448   9.131805   8.152290   2.554279
    27  C   11.639377   9.987320  10.562624   9.604340   3.916782
    28  H   10.301613   8.316185   9.125954   7.750689   2.155507
    29  H    9.145169   7.785118   8.516443   7.470662   2.155749
    30  H   11.143220   8.708273   9.245847   8.174821   2.776381
    31  H   10.084384   8.202626   8.644741   7.909677   2.776381
    32  H   11.271955  10.064317  10.647456   9.788161   4.228002
    33  H   12.233611  10.482843  11.143768  10.004851   4.228002
    34  H   12.373804  10.654782  11.139637  10.290707   4.730015
                   16         17         18         19         20
    16  C    0.000000
    17  C    1.528984   0.000000
    18  H    2.155655   2.768906   0.000000
    19  H    2.155330   2.768928   1.761000   0.000000
    20  H    1.097550   2.161693   2.501266   3.058264   0.000000
    21  H    1.097550   2.161692   3.058419   2.500372   1.759999
    22  H    2.171275   1.094807   3.122903   2.576229   3.074390
    23  H    2.171274   1.094807   2.576300   3.123411   2.517275
    24  H    2.182503   1.094467   3.775302   3.775138   2.508383
    25  C    2.554280   3.916783   2.155749   2.155507   2.776381
    26  C    3.923128   5.100546   2.781358   2.781503   4.203069
    27  C    5.100546   6.427736   4.204569   4.204483   5.211518
    28  H    2.781504   4.204484   2.504588   3.061614   2.551217
    29  H    2.781359   4.204569   3.061809   2.504588   3.099347
    30  H    4.203070   5.211519   2.551148   3.099972   4.387743
    31  H    4.203070   5.211519   3.099347   2.551217   4.727567
    32  H    5.248682   6.635279   4.755801   4.415730   5.422720
    33  H    5.248682   6.635279   4.416157   4.755777   5.127445
    34  H    6.032715   7.274720   4.888348   4.888413   6.192291
                   21         22         23         24         25
    21  H    0.000000
    22  H    2.517275   0.000000
    23  H    3.074390   1.770000   0.000000
    24  H    2.508383   1.771810   1.771809   0.000000
    25  C    2.776381   4.228002   4.228002   4.730015   0.000000
    26  C    4.203069   5.248681   5.248681   6.032714   1.529047
    27  C    5.211519   6.635278   6.635278   7.274719   2.546287
    28  H    3.099972   4.755777   4.415730   4.888413   1.098815
    29  H    2.551148   4.416157   4.755801   4.888348   1.098611
    30  H    4.727567   5.422720   5.127446   6.192291   2.152560
    31  H    4.387743   5.127445   5.422720   6.192291   2.152560
    32  H    5.127446   6.782503   7.009654   7.408767   2.803300
    33  H    5.422720   7.009654   6.782503   7.408767   2.803300
    34  H    6.192291   7.408767   7.408767   8.180649   3.500761
                   26         27         28         29         30
    26  C    0.000000
    27  C    1.528984   0.000000
    28  H    2.155329   2.768927   0.000000
    29  H    2.155655   2.768905   1.761000   0.000000
    30  H    1.097550   2.161691   2.500372   3.058419   0.000000
    31  H    1.097550   2.161692   3.058264   2.501266   1.759999
    32  H    2.171275   1.094807   3.123411   2.576300   3.074390
    33  H    2.171275   1.094807   2.576229   3.122903   2.517275
    34  H    2.182504   1.094468   3.775138   3.775302   2.508383
                   31         32         33         34
    31  H    0.000000
    32  H    2.517275   0.000000
    33  H    3.074390   1.770000   0.000000
    34  H    2.508383   1.771809   1.771810   0.000000
 Stoichiometry    C12H19NO2
 Framework group  C1[X(C12H19NO2)]
 Deg. of freedom    96
 Full point group                 C1      NOp   1
 Largest Abelian subgroup         C1      NOp   1
 Largest concise Abelian subgroup C1      NOp   1
                         Standard orientation:                         
 ---------------------------------------------------------------------
 Center     Atomic      Atomic             Coordinates (Angstroms)
 Number     Number       Type             X           Y           Z
 ---------------------------------------------------------------------
      1          6           0        3.548769    2.480588   -0.057698
      2          6           0        2.797082    1.868764    0.950845
      3          6           0        2.545841    0.493959    0.914295
      4          6           0        3.063836   -0.242013   -0.150278
      5          6           0        3.816323    0.338546   -1.170084
      6          6           0        4.055098    1.714876   -1.113083
      7          1           0        3.739097    3.549162   -0.021362
      8          1           0        2.402609    2.460936    1.771679
      9          1           0        1.967054   -0.005298    1.681866
     10          1           0        4.196370   -0.278001   -1.975598
     11          1           0        4.639197    2.187343   -1.897715
     12          7           0        2.804457   -1.698265   -0.199797
     13          8           0        3.271941   -2.324503   -1.148440
     14          8           0        2.138584   -2.185864    0.710970
     15          6           0       -3.344614   -0.415261    0.280207
     16          6           0       -2.344819    0.216138    1.249605
     17          6           0       -1.086022   -0.631522    1.435878
     18          1           0       -3.623267   -1.412083    0.648507
     19          1           0       -2.856155   -0.566657   -0.692357
     20          1           0       -2.835433    0.367570    2.219647
     21          1           0       -2.068661    1.211650    0.879055
     22          1           0       -0.571298   -0.772097    0.479897
     23          1           0       -1.342427   -1.620973    1.828108
     24          1           0       -0.385033   -0.161552    2.132729
     25          6           0       -4.608243    0.420394    0.083612
     26          6           0       -5.608037   -0.211005   -0.885785
     27          6           0       -6.866834    0.636655   -1.072058
     28          1           0       -5.096702    0.571790    1.056177
     29          1           0       -4.329590    1.417216   -0.284687
     30          1           0       -5.884196   -1.206517   -0.515235
     31          1           0       -5.117424   -0.362437   -1.855828
     32          1           0       -6.610430    1.626107   -1.464288
     33          1           0       -7.381559    0.777230   -0.116078
     34          1           0       -7.567824    0.166685   -1.768909
 ---------------------------------------------------------------------
 Rotational constants (GHZ):           0.8414880           0.1620565           0.1512184
 Leave Link  202 at Wed May  5 23:40:24 2021, MaxMem=   524288000 cpu:               0.0 elap:               0.1
 (Enter /opt/gaussian/g16_legacy/l301.exe)
 Standard basis: 6-31G(d) (6D, 7F)
 Ernie: Thresh=  0.10000D-02 Tol=  0.10000D-05 Strict=F.
 There are   263 symmetry adapted cartesian basis functions of A   symmetry.
 There are   263 symmetry adapted basis functions of A   symmetry.
   263 basis functions,   496 primitive gaussians,   263 cartesian basis functions
    57 alpha electrons       57 beta electrons
       nuclear repulsion energy       901.2207352018 Hartrees.
 IExCor=    0 DFT=F Ex=HF Corr=None ExCW=0 ScaHFX=  1.000000
 ScaDFX=  1.000000  1.000000  1.000000  1.000000 ScalE2=  1.000000  1.000000
 IRadAn=      5 IRanWt=     -1 IRanGd=            0 ICorTp=0 IEmpDi=  4
 NAtoms=   34 NActive=   34 NUniq=   34 SFac= 1.00D+00 NAtFMM=   60 NAOKFM=F Big=F
 Integral buffers will be    131072 words long.
 Raffenetti 1 integral format.
 Two-electron integral symmetry is turned on.
 Leave Link  301 at Wed May  5 23:40:24 2021, MaxMem=   524288000 cpu:               0.1 elap:               0.1
 (Enter /opt/gaussian/g16_legacy/l302.exe)
 NPDir=0 NMtPBC=     1 NCelOv=     1 NCel=       1 NClECP=     1 NCelD=      1
         NCelK=      1 NCelE2=     1 NClLst=     1 CellRange=     0.0.
 One-electron integrals computed using PRISM.
 One-electron integral symmetry used in STVInt
 NBasis=   263 RedAO= T EigKep=  4.75D-04  NBF=   263
 NBsUse=   263 1.00D-06 EigRej= -1.00D+00 NBFU=   263
 Leave Link  302 at Wed May  5 23:40:24 2021, MaxMem=   524288000 cpu:               0.4 elap:               0.4
 (Enter /opt/gaussian/g16_legacy/l303.exe)
 DipDrv:  MaxL=1.
 Leave Link  303 at Wed May  5 23:40:25 2021, MaxMem=   524288000 cpu:               0.1 elap:               0.1
 (Enter /opt/gaussian/g16_legacy/l401.exe)
 ExpMin= 1.61D-01 ExpMax= 5.48D+03 ExpMxC= 8.25D+02 IAcc=3 IRadAn=         5 AccDes= 0.00D+00
 Harris functional with IExCor=  205 and IRadAn=       5 diagonalized for initial guess.
 HarFok:  IExCor=  205 AccDes= 0.00D+00 IRadAn=         5 IDoV= 1 UseB2=F ITyADJ=14
 ICtDFT=  3500011 ScaDFX=  1.000000  1.000000  1.000000  1.000000
 FoFCou: FMM=F IPFlag=           0 FMFlag=      100000 FMFlg1=           0
         NFxFlg=           0 DoJE=T BraDBF=F KetDBF=T FulRan=T
         wScrn=  0.000000 ICntrl=       500 IOpCl=  0 I1Cent=   200000004 NGrid=           0
         NMat0=    1 NMatS0=      1 NMatT0=    0 NMatD0=    1 NMtDS0=    0 NMtDT0=    0
 Petite list used in FoFCou.
 Harris En= -670.657017198553    
 JPrj=0 DoOrth=F DoCkMO=F.
 Leave Link  401 at Wed May  5 23:40:29 2021, MaxMem=   524288000 cpu:               7.8 elap:               4.1
 (Enter /opt/gaussian/g16_legacy/l502.exe)
 Integral symmetry usage will be decided dynamically.
 Closed shell SCF:
 Using DIIS extrapolation, IDIIS=  1040.
 NGot=   524288000 LenX=   524144919 LenY=   524075309
 Requested convergence on RMS density matrix=1.00D-08 within 128 cycles.
 Requested convergence on MAX density matrix=1.00D-06.
 Requested convergence on             energy=1.00D-06.
 No special actions if energy rises.
 Fock matrices will be formed incrementally for  20 cycles.
 Integral accuracy reduced to 1.0D-05 until final iterations.

 Cycle   1  Pass 0  IDiag  1:
 FoFJK:  IHMeth= 1 ICntrl=       0 DoSepK=F KAlg= 0 I1Cent=           0 FoldK=F
 IRaf= 710000000 NMat=       1 IRICut=       1 DoRegI=T DoRafI=F ISym2E= 0 IDoP0=0 IntGTp=1.
 FoFCou: FMM=F IPFlag=           0 FMFlag=      100000 FMFlg1=           0
         NFxFlg=           0 DoJE=F BraDBF=F KetDBF=F FulRan=T
         wScrn=  0.000000 ICntrl=         0 IOpCl=  0 I1Cent=           0 NGrid=           0
         NMat0=    1 NMatS0=      1 NMatT0=    0 NMatD0=    1 NMtDS0=    0 NMtDT0=    0
 Symmetry not used in FoFCou.
 E= -668.739355992128    
 DIIS: error= 5.50D-02 at cycle   1 NSaved=   1.
 NSaved= 1 IEnMin= 1 EnMin= -668.739355992128     IErMin= 1 ErrMin= 5.50D-02
 ErrMax= 5.50D-02  0.00D+00 EMaxC= 1.00D-01 BMatC= 1.17D+00 BMatP= 1.17D+00
 IDIUse=3 WtCom= 4.50D-01 WtEn= 5.50D-01
 Coeff-Com:  0.100D+01
 Coeff-En:   0.100D+01
 Coeff:      0.100D+01
 Gap=     0.555 Goal=   None    Shift=    0.000
 GapD=    0.555 DampG=2.000 DampE=0.500 DampFc=1.0000 IDamp=-1.
 RMSDP=4.60D-03 MaxDP=1.19D-01              OVMax= 1.51D-01

 Cycle   2  Pass 0  IDiag  1:
 RMSU=  4.48D-03    CP:  9.48D-01
 E= -669.356930132971     Delta-E=       -0.617574140843 Rises=F Damp=F
 DIIS: error= 2.63D-02 at cycle   2 NSaved=   2.
 NSaved= 2 IEnMin= 2 EnMin= -669.356930132971     IErMin= 2 ErrMin= 2.63D-02
 ErrMax= 2.63D-02  0.00D+00 EMaxC= 1.00D-01 BMatC= 2.19D-01 BMatP= 1.17D+00
 IDIUse=3 WtCom= 7.37D-01 WtEn= 2.63D-01
 Coeff-Com:  0.247D+00 0.753D+00
 Coeff-En:   0.000D+00 0.100D+01
 Coeff:      0.182D+00 0.818D+00
 Gap=     0.565 Goal=   None    Shift=    0.000
 RMSDP=1.81D-03 MaxDP=8.22D-02 DE=-6.18D-01 OVMax= 1.09D-01

 Cycle   3  Pass 0  IDiag  1:
 RMSU=  1.44D-03    CP:  9.57D-01  7.56D-01
 E= -669.507833323980     Delta-E=       -0.150903191010 Rises=F Damp=F
 DIIS: error= 1.60D-02 at cycle   3 NSaved=   3.
 NSaved= 3 IEnMin= 3 EnMin= -669.507833323980     IErMin= 3 ErrMin= 1.60D-02
 ErrMax= 1.60D-02  0.00D+00 EMaxC= 1.00D-01 BMatC= 3.52D-02 BMatP= 2.19D-01
 IDIUse=3 WtCom= 8.40D-01 WtEn= 1.60D-01
 Coeff-Com: -0.950D-02 0.265D+00 0.745D+00
 Coeff-En:   0.000D+00 0.000D+00 0.100D+01
 Coeff:     -0.798D-02 0.222D+00 0.786D+00
 Gap=     0.426 Goal=   None    Shift=    0.000
 RMSDP=6.00D-04 MaxDP=3.27D-02 DE=-1.51D-01 OVMax= 5.01D-02

 Cycle   4  Pass 0  IDiag  1:
 RMSU=  4.03D-04    CP:  9.55D-01  8.34D-01  8.09D-01
 E= -669.532455009348     Delta-E=       -0.024621685367 Rises=F Damp=F
 DIIS: error= 4.14D-03 at cycle   4 NSaved=   4.
 NSaved= 4 IEnMin= 4 EnMin= -669.532455009348     IErMin= 4 ErrMin= 4.14D-03
 ErrMax= 4.14D-03  0.00D+00 EMaxC= 1.00D-01 BMatC= 3.16D-03 BMatP= 3.52D-02
 IDIUse=3 WtCom= 9.59D-01 WtEn= 4.14D-02
 Coeff-Com: -0.133D-01 0.410D-01 0.299D+00 0.673D+00
 Coeff-En:   0.000D+00 0.000D+00 0.000D+00 0.100D+01
 Coeff:     -0.127D-01 0.393D-01 0.287D+00 0.687D+00
 Gap=     0.412 Goal=   None    Shift=    0.000
 RMSDP=1.76D-04 MaxDP=9.09D-03 DE=-2.46D-02 OVMax= 1.49D-02

 Cycle   5  Pass 0  IDiag  1:
 RMSU=  9.83D-05    CP:  9.55D-01  8.35D-01  8.83D-01  7.56D-01
 E= -669.534988699844     Delta-E=       -0.002533690496 Rises=F Damp=F
 DIIS: error= 6.61D-04 at cycle   5 NSaved=   5.
 NSaved= 5 IEnMin= 5 EnMin= -669.534988699844     IErMin= 5 ErrMin= 6.61D-04
 ErrMax= 6.61D-04  0.00D+00 EMaxC= 1.00D-01 BMatC= 6.03D-05 BMatP= 3.16D-03
 IDIUse=3 WtCom= 9.93D-01 WtEn= 6.61D-03
 Coeff-Com:  0.202D-02-0.190D-01-0.770D-01-0.315D-01 0.113D+01
 Coeff-En:   0.000D+00 0.000D+00 0.000D+00 0.000D+00 0.100D+01
 Coeff:      0.201D-02-0.189D-01-0.765D-01-0.313D-01 0.112D+01
 Gap=     0.414 Goal=   None    Shift=    0.000
 RMSDP=5.36D-05 MaxDP=1.46D-03 DE=-2.53D-03 OVMax= 4.76D-03

 Cycle   6  Pass 0  IDiag  1:
 RMSU=  2.50D-05    CP:  9.55D-01  8.37D-01  8.96D-01  8.41D-01  1.25D+00
 E= -669.535101051134     Delta-E=       -0.000112351289 Rises=F Damp=F
 DIIS: error= 1.81D-04 at cycle   6 NSaved=   6.
 NSaved= 6 IEnMin= 6 EnMin= -669.535101051134     IErMin= 6 ErrMin= 1.81D-04
 ErrMax= 1.81D-04  0.00D+00 EMaxC= 1.00D-01 BMatC= 5.98D-06 BMatP= 6.03D-05
 IDIUse=3 WtCom= 9.98D-01 WtEn= 1.81D-03
 Coeff-Com:  0.126D-02-0.633D-02-0.347D-01-0.524D-01 0.137D+00 0.955D+00
 Coeff-En:   0.000D+00 0.000D+00 0.000D+00 0.000D+00 0.000D+00 0.100D+01
 Coeff:      0.126D-02-0.632D-02-0.346D-01-0.523D-01 0.137D+00 0.955D+00
 Gap=     0.414 Goal=   None    Shift=    0.000
 RMSDP=1.77D-05 MaxDP=6.38D-04 DE=-1.12D-04 OVMax= 1.72D-03

 Cycle   7  Pass 0  IDiag  1:
 RMSU=  8.87D-06    CP:  9.55D-01  8.38D-01  8.99D-01  8.53D-01  1.38D+00
                    CP:  1.19D+00
 E= -669.535116675668     Delta-E=       -0.000015624535 Rises=F Damp=F
 DIIS: error= 1.21D-04 at cycle   7 NSaved=   7.
 NSaved= 7 IEnMin= 7 EnMin= -669.535116675668     IErMin= 7 ErrMin= 1.21D-04
 ErrMax= 1.21D-04  0.00D+00 EMaxC= 1.00D-01 BMatC= 1.18D-06 BMatP= 5.98D-06
 IDIUse=3 WtCom= 9.99D-01 WtEn= 1.21D-03
 Coeff-Com: -0.268D-03 0.246D-02 0.101D-01 0.624D-02-0.154D+00 0.101D-02
 Coeff-Com:  0.113D+01
 Coeff-En:   0.000D+00 0.000D+00 0.000D+00 0.000D+00 0.000D+00 0.000D+00
 Coeff-En:   0.100D+01
 Coeff:     -0.267D-03 0.246D-02 0.100D-01 0.624D-02-0.154D+00 0.101D-02
 Coeff:      0.113D+01
 Gap=     0.414 Goal=   None    Shift=    0.000
 RMSDP=9.16D-06 MaxDP=3.61D-04 DE=-1.56D-05 OVMax= 1.39D-03

 Initial convergence to 1.0D-05 achieved.  Increase integral accuracy.
 Cycle   8  Pass 1  IDiag  1:
 E= -669.535121085477     Delta-E=       -0.000004409809 Rises=F Damp=F
 DIIS: error= 5.80D-05 at cycle   1 NSaved=   1.
 NSaved= 1 IEnMin= 1 EnMin= -669.535121085477     IErMin= 1 ErrMin= 5.80D-05
 ErrMax= 5.80D-05  0.00D+00 EMaxC= 1.00D-01 BMatC= 3.72D-07 BMatP= 3.72D-07
 IDIUse=1 WtCom= 1.00D+00 WtEn= 0.00D+00
 Coeff-Com:  0.100D+01
 Coeff:      0.100D+01
 Gap=     0.414 Goal=   None    Shift=    0.000
 RMSDP=9.16D-06 MaxDP=3.61D-04 DE=-4.41D-06 OVMax= 5.41D-04

 Cycle   9  Pass 1  IDiag  1:
 RMSU=  1.17D-05    CP:  1.00D+00
 E= -669.535122126006     Delta-E=       -0.000001040529 Rises=F Damp=F
 DIIS: error= 4.51D-05 at cycle   2 NSaved=   2.
 NSaved= 2 IEnMin= 2 EnMin= -669.535122126006     IErMin= 2 ErrMin= 4.51D-05
 ErrMax= 4.51D-05  0.00D+00 EMaxC= 1.00D-01 BMatC= 1.26D-07 BMatP= 3.72D-07
 IDIUse=1 WtCom= 1.00D+00 WtEn= 0.00D+00
 Coeff-Com:  0.514D-01 0.949D+00
 Coeff:      0.514D-01 0.949D+00
 Gap=     0.414 Goal=   None    Shift=    0.000
 RMSDP=2.28D-06 MaxDP=7.49D-05 DE=-1.04D-06 OVMax= 3.71D-04

 Cycle  10  Pass 1  IDiag  1:
 RMSU=  2.09D-06    CP:  1.00D+00  1.08D+00
 E= -669.535122537653     Delta-E=       -0.000000411647 Rises=F Damp=F
 DIIS: error= 2.65D-05 at cycle   3 NSaved=   3.
 NSaved= 3 IEnMin= 3 EnMin= -669.535122537653     IErMin= 3 ErrMin= 2.65D-05
 ErrMax= 2.65D-05  0.00D+00 EMaxC= 1.00D-01 BMatC= 5.98D-08 BMatP= 1.26D-07
 IDIUse=1 WtCom= 1.00D+00 WtEn= 0.00D+00
 Coeff-Com: -0.393D+00 0.148D+00 0.125D+01
 Coeff:     -0.393D+00 0.148D+00 0.125D+01
 Gap=     0.414 Goal=   None    Shift=    0.000
 RMSDP=2.62D-06 MaxDP=7.28D-05 DE=-4.12D-07 OVMax= 3.81D-04

 Cycle  11  Pass 1  IDiag  1:
 RMSU=  1.58D-06    CP:  1.00D+00  1.16D+00  1.88D+00
 E= -669.535122837438     Delta-E=       -0.000000299785 Rises=F Damp=F
 DIIS: error= 1.06D-05 at cycle   4 NSaved=   4.
 NSaved= 4 IEnMin= 4 EnMin= -669.535122837438     IErMin= 4 ErrMin= 1.06D-05
 ErrMax= 1.06D-05  0.00D+00 EMaxC= 1.00D-01 BMatC= 9.61D-09 BMatP= 5.98D-08
 IDIUse=1 WtCom= 1.00D+00 WtEn= 0.00D+00
 Coeff-Com: -0.545D-01-0.256D+00 0.107D+00 0.120D+01
 Coeff:     -0.545D-01-0.256D+00 0.107D+00 0.120D+01
 Gap=     0.414 Goal=   None    Shift=    0.000
 RMSDP=1.46D-06 MaxDP=4.07D-05 DE=-3.00D-07 OVMax= 2.14D-04

 Cycle  12  Pass 1  IDiag  1:
 RMSU=  3.19D-07    CP:  1.00D+00  1.18D+00  2.48D+00  1.39D+00
 E= -669.535122890404     Delta-E=       -0.000000052966 Rises=F Damp=F
 DIIS: error= 2.51D-06 at cycle   5 NSaved=   5.
 NSaved= 5 IEnMin= 5 EnMin= -669.535122890404     IErMin= 5 ErrMin= 2.51D-06
 ErrMax= 2.51D-06  0.00D+00 EMaxC= 1.00D-01 BMatC= 1.63D-09 BMatP= 9.61D-09
 IDIUse=1 WtCom= 1.00D+00 WtEn= 0.00D+00
 Coeff-Com:  0.223D-01-0.126D+00-0.939D-01 0.518D+00 0.680D+00
 Coeff:      0.223D-01-0.126D+00-0.939D-01 0.518D+00 0.680D+00
 Gap=     0.414 Goal=   None    Shift=    0.000
 RMSDP=2.41D-07 MaxDP=7.26D-06 DE=-5.30D-08 OVMax= 3.75D-05

 Cycle  13  Pass 1  IDiag  1:
 RMSU=  9.95D-08    CP:  1.00D+00  1.18D+00  2.57D+00  1.46D+00  8.00D-01
 E= -669.535122892742     Delta-E=       -0.000000002337 Rises=F Damp=F
 DIIS: error= 5.71D-07 at cycle   6 NSaved=   6.
 NSaved= 6 IEnMin= 6 EnMin= -669.535122892742     IErMin= 6 ErrMin= 5.71D-07
 ErrMax= 5.71D-07  0.00D+00 EMaxC= 1.00D-01 BMatC= 4.21D-11 BMatP= 1.63D-09
 IDIUse=1 WtCom= 1.00D+00 WtEn= 0.00D+00
 Coeff-Com: -0.643D-03 0.378D-01 0.121D-01-0.167D+00-0.146D+00 0.126D+01
 Coeff:     -0.643D-03 0.378D-01 0.121D-01-0.167D+00-0.146D+00 0.126D+01
 Gap=     0.414 Goal=   None    Shift=    0.000
 RMSDP=5.66D-08 MaxDP=1.42D-06 DE=-2.34D-09 OVMax= 5.60D-06

 Cycle  14  Pass 1  IDiag  1:
 RMSU=  2.80D-08    CP:  1.00D+00  1.18D+00  2.57D+00  1.47D+00  8.77D-01
                    CP:  1.35D+00
 E= -669.535122892864     Delta-E=       -0.000000000122 Rises=F Damp=F
 DIIS: error= 2.84D-07 at cycle   7 NSaved=   7.
 NSaved= 7 IEnMin= 7 EnMin= -669.535122892864     IErMin= 7 ErrMin= 2.84D-07
 ErrMax= 2.84D-07  0.00D+00 EMaxC= 1.00D-01 BMatC= 7.00D-12 BMatP= 4.21D-11
 IDIUse=1 WtCom= 1.00D+00 WtEn= 0.00D+00
 Coeff-Com: -0.277D-02 0.220D-01 0.136D-01-0.944D-01-0.119D+00 0.267D+00
 Coeff-Com:  0.914D+00
 Coeff:     -0.277D-02 0.220D-01 0.136D-01-0.944D-01-0.119D+00 0.267D+00
 Coeff:      0.914D+00
 Gap=     0.414 Goal=   None    Shift=    0.000
 RMSDP=1.81D-08 MaxDP=6.81D-07 DE=-1.22D-10 OVMax= 2.16D-06

 Cycle  15  Pass 1  IDiag  1:
 RMSU=  9.84D-09    CP:  1.00D+00  1.18D+00  2.58D+00  1.48D+00  8.84D-01
                    CP:  1.46D+00  1.13D+00
 E= -669.535122892916     Delta-E=       -0.000000000052 Rises=F Damp=F
 DIIS: error= 1.25D-07 at cycle   8 NSaved=   8.
 NSaved= 8 IEnMin= 8 EnMin= -669.535122892916     IErMin= 8 ErrMin= 1.25D-07
 ErrMax= 1.25D-07  0.00D+00 EMaxC= 1.00D-01 BMatC= 1.33D-12 BMatP= 7.00D-12
 IDIUse=1 WtCom= 1.00D+00 WtEn= 0.00D+00
 Coeff-Com: -0.307D-03-0.179D-02 0.104D-02 0.769D-02-0.412D-02-0.119D+00
 Coeff-Com:  0.164D+00 0.952D+00
 Coeff:     -0.307D-03-0.179D-02 0.104D-02 0.769D-02-0.412D-02-0.119D+00
 Coeff:      0.164D+00 0.952D+00
 Gap=     0.414 Goal=   None    Shift=    0.000
 RMSDP=6.47D-09 MaxDP=3.11D-07 DE=-5.18D-11 OVMax= 5.35D-07

 SCF Done:  E(RHF) =  -669.535122893     A.U. after   15 cycles
            NFock= 15  Conv=0.65D-08     -V/T= 2.0024
 KE= 6.679630553479D+02 PE=-3.365633843431D+03 EE= 1.126914929988D+03
 Leave Link  502 at Wed May  5 23:41:00 2021, MaxMem=   524288000 cpu:              61.1 elap:              30.7
 (Enter /opt/gaussian/g16_legacy/l801.exe)
 ExpMin= 1.61D-01 ExpMax= 5.48D+03 ExpMxC= 8.25D+02 IAcc=3 IRadAn=         5 AccDes= 0.00D+00
 HarFok:  IExCor=  205 AccDes= 0.00D+00 IRadAn=         5 IDoV=-2 UseB2=F ITyADJ=14
 ICtDFT= 12500011 ScaDFX=  1.000000  1.000000  1.000000  1.000000
 Largest valence mixing into a core orbital is  1.97D-04
 Largest core mixing into a valence orbital is  4.00D-05
 Range of M.O.s used for correlation:    16   263
 NBasis=   263 NAE=    57 NBE=    57 NFC=    15 NFV=     0
 NROrb=    248 NOA=    42 NOB=    42 NVA=   206 NVB=   206
 Leave Link  801 at Wed May  5 23:41:00 2021, MaxMem=   524288000 cpu:               1.3 elap:               0.7
 (Enter /opt/gaussian/g16_legacy/l906.exe)
 FulOut=F Deriv=F AODrv=F NAtomX=    34
   MMem=         113  MDisk=          42 MDiskD=          42
  W3Min=     2275476 MinDsk=     2420380 NBas6D=         263
 NBas2D=       35121    NTT=       34716    LW2=     2000000
    MDV=   523949717 MDiskM=       27563 NBas2p=       23187
 Fully direct method using O(OVN) memory.
 IMap=   1   2   3   4   5   6   7   8   9  10  11  12  13  14  15  16  17  18  19  20
 IMap=  21  22  23  24  25  26  27  28  29  30  31  32  33  34  35  36  37  38  39  40
 IMap=  41  42
 JobTyp=1 Pass  1:  I=   1 to  42 NPSUse=  2 ParTrn=T ParDer=T DoDerP=F.
 Spin components of T(2) and E(2):
     alpha-alpha T2 =       0.9496543535D-01 E2=     -0.2720203679D+00
     alpha-beta  T2 =       0.5261279988D+00 E2=     -0.1547909818D+01
     beta-beta   T2 =       0.9496543535D-01 E2=     -0.2720203679D+00
 The integrals were generated   1 times.
 ANorm=    0.1309984301D+01
 E2 =    -0.2091950554D+01 EUMP2 =    -0.67162707344661D+03
 Leave Link  906 at Wed May  5 23:41:59 2021, MaxMem=   524288000 cpu:             115.4 elap:              58.4
 (Enter /opt/gaussian/g16_legacy/l601.exe)
 Copying SCF densities to generalized density rwf, IOpCl= 0 IROHF=0.

 **********************************************************************

            Population analysis using the SCF density.

 **********************************************************************

 Orbital symmetries:
       Occupied  (A) (A) (A) (A) (A) (A) (A) (A) (A) (A) (A) (A)
                 (A) (A) (A) (A) (A) (A) (A) (A) (A) (A) (A) (A)
                 (A) (A) (A) (A) (A) (A) (A) (A) (A) (A) (A) (A)
                 (A) (A) (A) (A) (A) (A) (A) (A) (A) (A) (A) (A)
                 (A) (A) (A) (A) (A) (A) (A) (A) (A)
       Virtual   (A) (A) (A) (A) (A) (A) (A) (A) (A) (A) (A) (A)
                 (A) (A) (A) (A) (A) (A) (A) (A) (A) (A) (A) (A)
                 (A) (A) (A) (A) (A) (A) (A) (A) (A) (A) (A) (A)
                 (A) (A) (A) (A) (A) (A) (A) (A) (A) (A) (A) (A)
                 (A) (A) (A) (A) (A) (A) (A) (A) (A) (A) (A) (A)
                 (A) (A) (A) (A) (A) (A) (A) (A) (A) (A) (A) (A)
                 (A) (A) (A) (A) (A) (A) (A) (A) (A) (A) (A) (A)
                 (A) (A) (A) (A) (A) (A) (A) (A) (A) (A) (A) (A)
                 (A) (A) (A) (A) (A) (A) (A) (A) (A) (A) (A) (A)
                 (A) (A) (A) (A) (A) (A) (A) (A) (A) (A) (A) (A)
                 (A) (A) (A) (A) (A) (A) (A) (A) (A) (A) (A) (A)
                 (A) (A) (A) (A) (A) (A) (A) (A) (A) (A) (A) (A)
                 (A) (A) (A) (A) (A) (A) (A) (A) (A) (A) (A) (A)
                 (A) (A) (A) (A) (A) (A) (A) (A) (A) (A) (A) (A)
                 (A) (A) (A) (A) (A) (A) (A) (A) (A) (A) (A) (A)
                 (A) (A) (A) (A) (A) (A) (A) (A) (A) (A) (A) (A)
                 (A) (A) (A) (A) (A) (A) (A) (A) (A) (A) (A) (A)
                 (A) (A)
 The electronic state is 1-A.
 Alpha  occ. eigenvalues --  -20.60794 -20.60771 -15.85816 -11.31158 -11.27747
 Alpha  occ. eigenvalues --  -11.27692 -11.27492 -11.26753 -11.26736 -11.21494
 Alpha  occ. eigenvalues --  -11.21490 -11.21295 -11.21210 -11.21001 -11.20841
 Alpha  occ. eigenvalues --   -1.59849  -1.39402  -1.19342  -1.08743  -1.08311
 Alpha  occ. eigenvalues --   -1.04743  -1.03410  -0.95864  -0.95566  -0.86876
 Alpha  occ. eigenvalues --   -0.86131  -0.82410  -0.79476  -0.78122  -0.77444
 Alpha  occ. eigenvalues --   -0.72037  -0.71170  -0.70461  -0.64996  -0.64946
 Alpha  occ. eigenvalues --   -0.64753  -0.62134  -0.60795  -0.59235  -0.57472
 Alpha  occ. eigenvalues --   -0.55276  -0.55101  -0.53094  -0.52969  -0.52400
 Alpha  occ. eigenvalues --   -0.52250  -0.49768  -0.48800  -0.48796  -0.47776
 Alpha  occ. eigenvalues --   -0.46505  -0.45667  -0.45593  -0.44746  -0.43670
 Alpha  occ. eigenvalues --   -0.37328  -0.36330
 Alpha virt. eigenvalues --    0.05058   0.11274   0.16522   0.21023   0.23002
 Alpha virt. eigenvalues --    0.24270   0.26308   0.26781   0.27635   0.27848
 Alpha virt. eigenvalues --    0.28813   0.30644   0.31507   0.31597   0.32020
 Alpha virt. eigenvalues --    0.33752   0.34075   0.34284   0.34570   0.34918
 Alpha virt. eigenvalues --    0.36110   0.36450   0.36622   0.38248   0.39886
 Alpha virt. eigenvalues --    0.41146   0.43172   0.44499   0.45654   0.46364
 Alpha virt. eigenvalues --    0.47441   0.48628   0.49705   0.51238   0.56953
 Alpha virt. eigenvalues --    0.67367   0.68908   0.69289   0.69485   0.71103
 Alpha virt. eigenvalues --    0.71210   0.72356   0.74593   0.75979   0.77776
 Alpha virt. eigenvalues --    0.78088   0.78761   0.79209   0.79517   0.80516
 Alpha virt. eigenvalues --    0.80718   0.81479   0.82211   0.84107   0.85363
 Alpha virt. eigenvalues --    0.86381   0.87813   0.88045   0.91133   0.93713
 Alpha virt. eigenvalues --    0.95733   0.95991   0.97117   0.98366   1.00367
 Alpha virt. eigenvalues --    1.02620   1.03342   1.04672   1.06014   1.07377
 Alpha virt. eigenvalues --    1.08384   1.08753   1.08874   1.10762   1.11388
 Alpha virt. eigenvalues --    1.11806   1.14587   1.15864   1.16448   1.16959
 Alpha virt. eigenvalues --    1.17149   1.18751   1.19137   1.19957   1.20667
 Alpha virt. eigenvalues --    1.20876   1.21211   1.21641   1.21997   1.22686
 Alpha virt. eigenvalues --    1.22925   1.24159   1.25283   1.25638   1.27030
 Alpha virt. eigenvalues --    1.27831   1.29219   1.30769   1.31232   1.32539
 Alpha virt. eigenvalues --    1.35035   1.39812   1.42027   1.46765   1.47108
 Alpha virt. eigenvalues --    1.52690   1.53540   1.55749   1.60640   1.65457
 Alpha virt. eigenvalues --    1.65796   1.66846   1.67156   1.67363   1.68156
 Alpha virt. eigenvalues --    1.71326   1.72612   1.72904   1.73319   1.73892
 Alpha virt. eigenvalues --    1.75538   1.79929   1.81711   1.92955   1.97160
 Alpha virt. eigenvalues --    1.99398   1.99906   2.04505   2.04688   2.05323
 Alpha virt. eigenvalues --    2.10066   2.12525   2.13030   2.13474   2.15871
 Alpha virt. eigenvalues --    2.18114   2.21620   2.21859   2.22639   2.24962
 Alpha virt. eigenvalues --    2.25692   2.25965   2.27445   2.28255   2.32889
 Alpha virt. eigenvalues --    2.32939   2.34286   2.36120   2.36214   2.37784
 Alpha virt. eigenvalues --    2.39938   2.42858   2.43363   2.43592   2.44617
 Alpha virt. eigenvalues --    2.45720   2.47000   2.56917   2.57173   2.58159
 Alpha virt. eigenvalues --    2.58626   2.59470   2.60339   2.67079   2.67818
 Alpha virt. eigenvalues --    2.68168   2.70596   2.77098   2.77744   2.80180
 Alpha virt. eigenvalues --    2.81686   2.83561   2.91673   2.91868   2.92110
 Alpha virt. eigenvalues --    2.92310   2.95446   2.99038   2.99953   3.04828
 Alpha virt. eigenvalues --    3.04839   3.07072   3.10545   3.14054   3.18764
 Alpha virt. eigenvalues --    3.23657   3.24996   3.27883   3.43121   3.53028
 Alpha virt. eigenvalues --    3.77024   4.13148   4.28924   4.38185   4.48028
 Alpha virt. eigenvalues --    4.50831   4.53092   4.55596   4.62654   4.71839
 Alpha virt. eigenvalues --    4.72538   4.76675   4.80014   4.88018   4.99898
 Alpha virt. eigenvalues --    5.08982
          Condensed to atoms (all electrons):
               1          2          3          4          5          6
     1  C    4.876015   0.542159  -0.045288  -0.028781  -0.045672   0.542360
     2  C    0.542159   4.934294   0.522600  -0.039478  -0.030214  -0.043747
     3  C   -0.045288   0.522600   4.922527   0.548420  -0.052969  -0.030236
     4  C   -0.028781  -0.039478   0.548420   4.822980   0.548115  -0.040209
     5  C   -0.045672  -0.030214  -0.052969   0.548115   4.919305   0.523117
     6  C    0.542360  -0.043747  -0.030236  -0.040209   0.523117   4.932710
     7  H    0.381346  -0.028016   0.002183   0.000215   0.002175  -0.028042
     8  H   -0.027725   0.382653  -0.027331   0.001562   0.000203   0.002338
     9  H    0.001901  -0.024018   0.366244  -0.018940   0.002534  -0.000055
    10  H    0.001933  -0.000066   0.002586  -0.019677   0.368525  -0.024104
    11  H   -0.027696   0.002332   0.000202   0.001559  -0.027374   0.382599
    12  N    0.000006   0.001538  -0.044230   0.243814  -0.044681   0.001510
    13  O   -0.000004  -0.000028   0.003686  -0.088128   0.004013   0.000773
    14  O   -0.000005   0.000781   0.004031  -0.087615   0.003697  -0.000026
    15  C    0.000000  -0.000000  -0.000001   0.000000   0.000000  -0.000000
    16  C   -0.000000  -0.000003   0.000009  -0.000002  -0.000000   0.000000
    17  C    0.000001  -0.000020  -0.001382  -0.000030   0.000002  -0.000000
    18  H   -0.000000   0.000000   0.000000  -0.000000  -0.000000  -0.000000
    19  H    0.000000  -0.000000  -0.000000  -0.000000   0.000000   0.000000
    20  H    0.000000  -0.000000  -0.000001  -0.000000   0.000000   0.000000
    21  H    0.000000   0.000013   0.000027   0.000000  -0.000000  -0.000000
    22  H   -0.000001  -0.000000   0.000330   0.000125  -0.000006  -0.000002
    23  H   -0.000000   0.000001   0.000057  -0.000002  -0.000000  -0.000000
    24  H    0.000001   0.000026  -0.000576   0.000089   0.000001  -0.000000
    25  C   -0.000000   0.000000   0.000000  -0.000000  -0.000000   0.000000
    26  C    0.000000  -0.000000  -0.000000  -0.000000   0.000000  -0.000000
    27  C   -0.000000   0.000000   0.000000   0.000000  -0.000000   0.000000
    28  H   -0.000000  -0.000000  -0.000000   0.000000   0.000000   0.000000
    29  H   -0.000000  -0.000000  -0.000000  -0.000000   0.000000   0.000000
    30  H    0.000000   0.000000   0.000000   0.000000  -0.000000  -0.000000
    31  H   -0.000000   0.000000   0.000000   0.000000   0.000000  -0.000000
    32  H    0.000000   0.000000   0.000000   0.000000  -0.000000  -0.000000
    33  H   -0.000000  -0.000000   0.000000   0.000000   0.000000   0.000000
    34  H    0.000000  -0.000000  -0.000000  -0.000000   0.000000  -0.000000
               7          8          9         10         11         12
     1  C    0.381346  -0.027725   0.001901   0.001933  -0.027696   0.000006
     2  C   -0.028016   0.382653  -0.024018  -0.000066   0.002332   0.001538
     3  C    0.002183  -0.027331   0.366244   0.002586   0.000202  -0.044230
     4  C    0.000215   0.001562  -0.018940  -0.019677   0.001559   0.243814
     5  C    0.002175   0.000203   0.002534   0.368525  -0.027374  -0.044681
     6  C   -0.028042   0.002338  -0.000055  -0.024104   0.382599   0.001510
     7  H    0.447202  -0.001194  -0.000071  -0.000071  -0.001197   0.000002
     8  H   -0.001194   0.447473  -0.001087   0.000007  -0.000094  -0.000049
     9  H   -0.000071  -0.001087   0.386647  -0.000075   0.000007  -0.005292
    10  H   -0.000071   0.000007  -0.000075   0.392918  -0.001113  -0.005386
    11  H   -0.001197  -0.000094   0.000007  -0.001113   0.447576  -0.000049
    12  N    0.000002  -0.000049  -0.005292  -0.005386  -0.000049   5.738382
    13  O    0.000000   0.000000   0.000037   0.009073  -0.000001   0.314426
    14  O    0.000000  -0.000000   0.007998   0.000047   0.000000   0.312509
    15  C    0.000000   0.000000   0.000002   0.000000  -0.000000  -0.000000
    16  C   -0.000000  -0.000000  -0.000032  -0.000000   0.000000  -0.000001
    17  C    0.000000   0.000005   0.000480   0.000000  -0.000000  -0.000001
    18  H   -0.000000   0.000000   0.000000  -0.000000   0.000000   0.000000
    19  H    0.000000  -0.000000  -0.000000   0.000000   0.000000  -0.000000
    20  H    0.000000  -0.000000  -0.000001   0.000000  -0.000000   0.000000
    21  H   -0.000000   0.000001   0.000002  -0.000000   0.000000   0.000000
    22  H    0.000000  -0.000002  -0.000100   0.000000  -0.000000   0.000073
    23  H   -0.000000  -0.000000   0.000002  -0.000000   0.000000   0.000004
    24  H    0.000000   0.000024   0.001562   0.000000  -0.000000  -0.000003
    25  C   -0.000000  -0.000000  -0.000000  -0.000000   0.000000  -0.000000
    26  C    0.000000  -0.000000   0.000000   0.000000  -0.000000   0.000000
    27  C   -0.000000   0.000000  -0.000000  -0.000000   0.000000  -0.000000
    28  H   -0.000000   0.000000  -0.000000  -0.000000   0.000000  -0.000000
    29  H    0.000000   0.000000   0.000000   0.000000  -0.000000   0.000000
    30  H    0.000000   0.000000   0.000000   0.000000  -0.000000  -0.000000
    31  H   -0.000000   0.000000  -0.000000  -0.000000   0.000000   0.000000
    32  H   -0.000000   0.000000   0.000000  -0.000000  -0.000000  -0.000000
    33  H   -0.000000   0.000000  -0.000000  -0.000000  -0.000000  -0.000000
    34  H    0.000000  -0.000000   0.000000   0.000000  -0.000000   0.000000
              13         14         15         16         17         18
     1  C   -0.000004  -0.000005   0.000000  -0.000000   0.000001  -0.000000
     2  C   -0.000028   0.000781  -0.000000  -0.000003  -0.000020   0.000000
     3  C    0.003686   0.004031  -0.000001   0.000009  -0.001382   0.000000
     4  C   -0.088128  -0.087615   0.000000  -0.000002  -0.000030  -0.000000
     5  C    0.004013   0.003697   0.000000  -0.000000   0.000002  -0.000000
     6  C    0.000773  -0.000026  -0.000000   0.000000  -0.000000  -0.000000
     7  H    0.000000   0.000000   0.000000  -0.000000   0.000000  -0.000000
     8  H    0.000000  -0.000000   0.000000  -0.000000   0.000005   0.000000
     9  H    0.000037   0.007998   0.000002  -0.000032   0.000480   0.000000
    10  H    0.009073   0.000047   0.000000  -0.000000   0.000000  -0.000000
    11  H   -0.000001   0.000000  -0.000000   0.000000  -0.000000   0.000000
    12  N    0.314426   0.312509  -0.000000  -0.000001  -0.000001   0.000000
    13  O    8.303856  -0.087297  -0.000000  -0.000000   0.000002   0.000000
    14  O   -0.087297   8.302829   0.000000   0.000024   0.000269  -0.000000
    15  C   -0.000000   0.000000   5.082727   0.352091  -0.056461   0.396758
    16  C   -0.000000   0.000024   0.352091   5.073343   0.334103  -0.041785
    17  C    0.000002   0.000269  -0.056461   0.334103   5.096483  -0.002769
    18  H    0.000000  -0.000000   0.396758  -0.041785  -0.002769   0.563181
    19  H    0.000000  -0.000000   0.396483  -0.041898  -0.002730  -0.031082
    20  H    0.000000  -0.000000  -0.043508   0.397859  -0.039199  -0.002967
    21  H    0.000000  -0.000000  -0.043732   0.397637  -0.039913   0.004586
    22  H   -0.000020   0.001571  -0.003813  -0.039040   0.392287   0.000147
    23  H   -0.000000   0.000001  -0.003759  -0.039100   0.393031   0.002579
    24  H   -0.000000  -0.000181   0.004487  -0.037267   0.392353  -0.000059
    25  C   -0.000000   0.000000   0.355025  -0.051920   0.003988  -0.041667
    26  C    0.000000   0.000000  -0.051881   0.003980  -0.000082  -0.003235
    27  C    0.000000  -0.000000   0.004072  -0.000086   0.000001  -0.000051
    28  H   -0.000000   0.000000  -0.041632  -0.003289  -0.000054  -0.002792
    29  H    0.000000  -0.000000  -0.041684  -0.003297  -0.000051   0.004455
    30  H   -0.000000   0.000000  -0.003164  -0.000064  -0.000001   0.002385
    31  H   -0.000000   0.000000  -0.003167  -0.000065  -0.000001   0.000235
    32  H   -0.000000  -0.000000  -0.000070  -0.000001  -0.000000  -0.000001
    33  H    0.000000  -0.000000  -0.000070  -0.000001  -0.000000   0.000013
    34  H   -0.000000   0.000000  -0.000087   0.000001  -0.000000   0.000001
              19         20         21         22         23         24
     1  C    0.000000   0.000000   0.000000  -0.000001  -0.000000   0.000001
     2  C   -0.000000  -0.000000   0.000013  -0.000000   0.000001   0.000026
     3  C   -0.000000  -0.000001   0.000027   0.000330   0.000057  -0.000576
     4  C   -0.000000  -0.000000   0.000000   0.000125  -0.000002   0.000089
     5  C    0.000000   0.000000  -0.000000  -0.000006  -0.000000   0.000001
     6  C    0.000000   0.000000  -0.000000  -0.000002  -0.000000  -0.000000
     7  H    0.000000   0.000000  -0.000000   0.000000  -0.000000   0.000000
     8  H   -0.000000  -0.000000   0.000001  -0.000002  -0.000000   0.000024
     9  H   -0.000000  -0.000001   0.000002  -0.000100   0.000002   0.001562
    10  H    0.000000   0.000000  -0.000000   0.000000  -0.000000   0.000000
    11  H    0.000000  -0.000000   0.000000  -0.000000   0.000000  -0.000000
    12  N   -0.000000   0.000000   0.000000   0.000073   0.000004  -0.000003
    13  O    0.000000   0.000000   0.000000  -0.000020  -0.000000  -0.000000
    14  O   -0.000000  -0.000000  -0.000000   0.001571   0.000001  -0.000181
    15  C    0.396483  -0.043508  -0.043732  -0.003813  -0.003759   0.004487
    16  C   -0.041898   0.397859   0.397637  -0.039040  -0.039100  -0.037267
    17  C   -0.002730  -0.039199  -0.039913   0.392287   0.393031   0.392353
    18  H   -0.031082  -0.002967   0.004586   0.000147   0.002579  -0.000059
    19  H    0.564795   0.004577  -0.002991   0.002566   0.000152  -0.000055
    20  H    0.004577   0.567222  -0.032202   0.004165  -0.002828  -0.002659
    21  H   -0.002991  -0.032202   0.571195  -0.002829   0.004201  -0.002532
    22  H    0.002566   0.004165  -0.002829   0.540211  -0.027227  -0.029349
    23  H    0.000152  -0.002828   0.004201  -0.027227   0.536832  -0.027322
    24  H   -0.000055  -0.002659  -0.002532  -0.029349  -0.027322   0.556638
    25  C   -0.041868  -0.003280  -0.003258  -0.000057  -0.000065  -0.000091
    26  C   -0.003245  -0.000067  -0.000066  -0.000001  -0.000001   0.000001
    27  C   -0.000052  -0.000000  -0.000000   0.000000  -0.000000  -0.000000
    28  H    0.004464   0.002423   0.000243  -0.000001   0.000013   0.000001
    29  H   -0.002796   0.000244   0.002427   0.000013  -0.000001   0.000001
    30  H    0.000235   0.000017  -0.000003   0.000000  -0.000002   0.000000
    31  H    0.002394  -0.000003   0.000017  -0.000002   0.000000   0.000000
    32  H    0.000013   0.000000  -0.000002   0.000000  -0.000000  -0.000000
    33  H   -0.000001  -0.000002   0.000000  -0.000000   0.000000  -0.000000
    34  H    0.000001   0.000000   0.000000  -0.000000  -0.000000   0.000000
              25         26         27         28         29         30
     1  C   -0.000000   0.000000  -0.000000  -0.000000  -0.000000   0.000000
     2  C    0.000000  -0.000000   0.000000  -0.000000  -0.000000   0.000000
     3  C    0.000000  -0.000000   0.000000  -0.000000  -0.000000   0.000000
     4  C   -0.000000  -0.000000   0.000000   0.000000  -0.000000   0.000000
     5  C   -0.000000   0.000000  -0.000000   0.000000   0.000000  -0.000000
     6  C    0.000000  -0.000000   0.000000   0.000000   0.000000  -0.000000
     7  H   -0.000000   0.000000  -0.000000  -0.000000   0.000000   0.000000
     8  H   -0.000000  -0.000000   0.000000   0.000000   0.000000   0.000000
     9  H   -0.000000   0.000000  -0.000000  -0.000000   0.000000   0.000000
    10  H   -0.000000   0.000000  -0.000000  -0.000000   0.000000   0.000000
    11  H    0.000000  -0.000000   0.000000   0.000000  -0.000000  -0.000000
    12  N   -0.000000   0.000000  -0.000000  -0.000000   0.000000  -0.000000
    13  O   -0.000000   0.000000   0.000000  -0.000000   0.000000  -0.000000
    14  O    0.000000   0.000000  -0.000000   0.000000  -0.000000   0.000000
    15  C    0.355025  -0.051881   0.004072  -0.041632  -0.041684  -0.003164
    16  C   -0.051920   0.003980  -0.000086  -0.003289  -0.003297  -0.000064
    17  C    0.003988  -0.000082   0.000001  -0.000054  -0.000051  -0.000001
    18  H   -0.041667  -0.003235  -0.000051  -0.002792   0.004455   0.002385
    19  H   -0.041868  -0.003245  -0.000052   0.004464  -0.002796   0.000235
    20  H   -0.003280  -0.000067  -0.000000   0.002423   0.000244   0.000017
    21  H   -0.003258  -0.000066  -0.000000   0.000243   0.002427  -0.000003
    22  H   -0.000057  -0.000001   0.000000  -0.000001   0.000013   0.000000
    23  H   -0.000065  -0.000001  -0.000000   0.000013  -0.000001  -0.000002
    24  H   -0.000091   0.000001  -0.000000   0.000001   0.000001   0.000000
    25  C    5.084904   0.352480  -0.057405   0.395881   0.395716  -0.043562
    26  C    0.352480   5.060093   0.340528  -0.041860  -0.041914   0.399335
    27  C   -0.057405   0.340528   5.097724  -0.002886  -0.002881  -0.039877
    28  H    0.395881  -0.041860  -0.002886   0.567997  -0.031716  -0.002985
    29  H    0.395716  -0.041914  -0.002881  -0.031716   0.569304   0.004573
    30  H   -0.043562   0.399335  -0.039877  -0.002985   0.004573   0.562803
    31  H   -0.043648   0.399246  -0.039941   0.004573  -0.002979  -0.031486
    32  H   -0.003807  -0.038935   0.391092   0.000160   0.002640   0.004220
    33  H   -0.003795  -0.038881   0.391193   0.002635   0.000160  -0.002888
    34  H    0.004400  -0.035801   0.394167  -0.000059  -0.000059  -0.002502
              31         32         33         34
     1  C   -0.000000   0.000000  -0.000000   0.000000
     2  C    0.000000   0.000000  -0.000000  -0.000000
     3  C    0.000000   0.000000   0.000000  -0.000000
     4  C    0.000000   0.000000   0.000000  -0.000000
     5  C    0.000000  -0.000000   0.000000   0.000000
     6  C   -0.000000  -0.000000   0.000000  -0.000000
     7  H   -0.000000  -0.000000  -0.000000   0.000000
     8  H    0.000000   0.000000   0.000000  -0.000000
     9  H   -0.000000   0.000000  -0.000000   0.000000
    10  H   -0.000000  -0.000000  -0.000000   0.000000
    11  H    0.000000  -0.000000  -0.000000  -0.000000
    12  N    0.000000  -0.000000  -0.000000   0.000000
    13  O   -0.000000  -0.000000   0.000000  -0.000000
    14  O    0.000000  -0.000000  -0.000000   0.000000
    15  C   -0.003167  -0.000070  -0.000070  -0.000087
    16  C   -0.000065  -0.000001  -0.000001   0.000001
    17  C   -0.000001  -0.000000  -0.000000  -0.000000
    18  H    0.000235  -0.000001   0.000013   0.000001
    19  H    0.002394   0.000013  -0.000001   0.000001
    20  H   -0.000003   0.000000  -0.000002   0.000000
    21  H    0.000017  -0.000002   0.000000   0.000000
    22  H   -0.000002   0.000000  -0.000000  -0.000000
    23  H    0.000000  -0.000000   0.000000  -0.000000
    24  H    0.000000  -0.000000  -0.000000   0.000000
    25  C   -0.043648  -0.003807  -0.003795   0.004400
    26  C    0.399246  -0.038935  -0.038881  -0.035801
    27  C   -0.039941   0.391092   0.391193   0.394167
    28  H    0.004573   0.000160   0.002635  -0.000059
    29  H   -0.002979   0.002640   0.000160  -0.000059
    30  H   -0.031486   0.004220  -0.002888  -0.002502
    31  H    0.563562  -0.002891   0.004219  -0.002502
    32  H   -0.002891   0.550158  -0.029246  -0.027544
    33  H    0.004219  -0.029246   0.549311  -0.027493
    34  H   -0.002502  -0.027544  -0.027493   0.537066
 Mulliken charges:
               1
     1  C   -0.170550
     2  C   -0.220807
     3  C   -0.170888
     4  C    0.155983
     5  C   -0.170772
     6  C   -0.218984
     7  H    0.225466
     8  H    0.223216
     9  H    0.282254
    10  H    0.275403
    11  H    0.223249
    12  N    0.487429
    13  O   -0.460387
    14  O   -0.458632
    15  C   -0.298616
    16  C   -0.301197
    17  C   -0.470312
    18  H    0.152068
    19  H    0.151040
    20  H    0.150208
    21  H    0.147179
    22  H    0.160962
    23  H    0.163433
    24  H    0.144909
    25  C   -0.297969
    26  C   -0.299694
    27  C   -0.475598
    28  H    0.148884
    29  H    0.147848
    30  H    0.152966
    31  H    0.152436
    32  H    0.154213
    33  H    0.154846
    34  H    0.160412
 Sum of Mulliken charges =  -0.00000
 Mulliken charges with hydrogens summed into heavy atoms:
               1
     1  C    0.054916
     2  C    0.002409
     3  C    0.111366
     4  C    0.155983
     5  C    0.104631
     6  C    0.004265
    12  N    0.487429
    13  O   -0.460387
    14  O   -0.458632
    15  C    0.004493
    16  C   -0.003809
    17  C   -0.001008
    25  C   -0.001237
    26  C    0.005709
    27  C   -0.006127
 Electronic spatial extent (au):  <R**2>=           7296.3147
 Charge=             -0.0000 electrons
 Dipole moment (field-independent basis, Debye):
    X=              0.9242    Y=              5.0008    Z=              0.1488  Tot=              5.0877
 Quadrupole moment (field-independent basis, Debye-Ang):
   XX=            -89.3570   YY=            -97.7833   ZZ=            -91.0034
   XY=             16.4667   XZ=             -2.7341   YZ=             -0.9216
 Traceless Quadrupole moment (field-independent basis, Debye-Ang):
   XX=              3.3576   YY=             -5.0687   ZZ=              1.7112
   XY=             16.4667   XZ=             -2.7341   YZ=             -0.9216
 Octapole moment (field-independent basis, Debye-Ang**2):
  XXX=             55.6727  YYY=             31.3223  ZZZ=             -2.0363  XYY=              5.1009
  XXY=             33.9037  XXZ=            -14.9041  XZZ=             14.4493  YZZ=              2.1832
  YYZ=              4.6937  XYZ=             -8.9589
 Hexadecapole moment (field-independent basis, Debye-Ang**3):
 XXXX=          -8342.3733 YYYY=          -1112.7357 ZZZZ=           -618.1005 XXXY=            148.0020
 XXXZ=           -153.0183 YYYX=            115.5407 YYYZ=             -4.2878 ZZZX=            -31.0937
 ZZZY=              4.5874 XXYY=          -1561.0310 XXZZ=          -1437.3057 YYZZ=           -296.3287
 XXYZ=            -57.8169 YYXZ=              6.9307 ZZXY=             14.4513
 N-N= 9.012207352018D+02 E-N=-3.365633838843D+03  KE= 6.679630553479D+02
 Leave Link  601 at Wed May  5 23:42:00 2021, MaxMem=   524288000 cpu:               0.8 elap:               0.8
 (Enter /opt/gaussian/g16_legacy/l9999.exe)
 1\1\GINC-TRUENO95\SP\RMP2-FC\6-31G(d)\C12H19N1O2\JRAMOS\05-May-2021\0\
 \#p 6-31g* mp2\\Input file generated by CHIRIPA (05-May-2021 14:55:18)
 \\0,1\C,0,1.914143,0.,0.\C,0,1.214143,1.211,0.\C,0,-0.183857,1.223,0.\
 C,0,-0.852857,0.,0.\C,0,-0.183857,-1.223,0.\C,0,1.214143,-1.211,0.\H,0
 ,3.000143,0.,0.\H,0,1.755143,2.153,0.\H,0,-0.750857,2.146,0.\H,0,-0.75
 0857,-2.146,0.\H,0,1.755143,-2.153,0.\N,0,-2.332857,0.,0.\O,0,-2.89885
 7,-1.091,0.\O,0,-2.898857,1.091,0.\C,0,-2.13204,3.684461,-5.106075\C,0
 ,-1.303118,4.031353,-3.868925\C,0,-1.910332,3.482395,-2.577519\H,0,-3.
 14938,4.07971,-4.980603\H,0,-2.227942,2.592351,-5.180192\H,0,-1.207642
 ,5.122435,-3.797933\H,0,-0.287579,3.635398,-3.99744\H,0,-1.990429,2.39
 1462,-2.622813\H,0,-2.91572,3.886949,-2.422172\H,0,-1.301735,3.74198,-
 1.705691\C,0,-1.53783,4.22637,-6.404911\C,0,-2.366752,3.879478,-7.6420
 6\C,0,-1.759538,4.428436,-8.933466\H,0,-1.441928,5.31848,-6.330794\H,0
 ,-0.52049,3.831121,-6.530383\H,0,-3.382291,4.275433,-7.513546\H,0,-2.4
 62228,2.788396,-7.713053\H,0,-0.75415,4.023882,-9.088814\H,0,-1.679441
 ,5.519369,-8.888173\H,0,-2.368135,4.168851,-9.805295\\Version=EM64L-G1
 6RevA.03\State=1-A\HF=-669.5351229\MP2=-671.6270734\RMSD=6.474e-09\PG=
 C01 [X(C12H19N1O2)]\\@


 You can't act like a skunk without someone's getting wind of it.
 -- Lorene Workman
 Job cpu time:       0 days  0 hours  3 minutes  7.5 seconds.
 Elapsed time:       0 days  0 hours  1 minutes 35.5 seconds.
 File lengths (MBytes):  RWF=     43 Int=      0 D2E=      0 Chk=      6 Scr=      1
 Normal termination of Gaussian 16 at Wed May  5 23:42:00 2021.
