 Entering Gaussian System, Link 0=/opt/gaussian/g16_legacy/g16
 Input=gaussian_00785_1_2.com
 Output=gaussian_00785_1_2.log
 Initial command:
 /opt/gaussian/g16_legacy/l1.exe "/scratch-local/jramos/2589243/Gau-5094.inp" -scrdir="/scratch-local/jramos/2589243/"
 Entering Link 1 = /opt/gaussian/g16_legacy/l1.exe PID=      5095.
  
 Copyright (c) 1988,1990,1992,1993,1995,1998,2003,2009,2016,
            Gaussian, Inc.  All Rights Reserved.
  
 This is part of the Gaussian(R) 16 program.  It is based on
 the Gaussian(R) 09 system (copyright 2009, Gaussian, Inc.),
 the Gaussian(R) 03 system (copyright 2003, Gaussian, Inc.),
 the Gaussian(R) 98 system (copyright 1998, Gaussian, Inc.),
 the Gaussian(R) 94 system (copyright 1995, Gaussian, Inc.),
 the Gaussian 92(TM) system (copyright 1992, Gaussian, Inc.),
 the Gaussian 90(TM) system (copyright 1990, Gaussian, Inc.),
 the Gaussian 88(TM) system (copyright 1988, Gaussian, Inc.),
 the Gaussian 86(TM) system (copyright 1986, Carnegie Mellon
 University), and the Gaussian 82(TM) system (copyright 1983,
 Carnegie Mellon University). Gaussian is a federally registered
 trademark of Gaussian, Inc.
  
 This software contains proprietary and confidential information,
 including trade secrets, belonging to Gaussian, Inc.
  
 This software is provided under written license and may be
 used, copied, transmitted, or stored only in accord with that
 written license.
  
 The following legend is applicable only to US Government
 contracts under FAR:
  
                    RESTRICTED RIGHTS LEGEND
  
 Use, reproduction and disclosure by the US Government is
 subject to restrictions as set forth in subparagraphs (a)
 and (c) of the Commercial Computer Software - Restricted
 Rights clause in FAR 52.227-19.
  
 Gaussian, Inc.
 340 Quinnipiac St., Bldg. 40, Wallingford CT 06492
  
  
 ---------------------------------------------------------------
 Warning -- This program may not be used in any manner that
 competes with the business of Gaussian, Inc. or will provide
 assistance to any competitor of Gaussian, Inc.  The licensee
 of this program is prohibited from giving any competitor of
 Gaussian, Inc. access to this program.  By using this program,
 the user acknowledges that Gaussian, Inc. is engaged in the
 business of creating and licensing software in the field of
 computational chemistry and represents and warrants to the
 licensee that it is not a competitor of Gaussian, Inc. and that
 it will not use this program in any manner prohibited above.
 ---------------------------------------------------------------
  

 Cite this work as:
 Gaussian 16, Revision A.03,
 M. J. Frisch, G. W. Trucks, H. B. Schlegel, G. E. Scuseria, 
 M. A. Robb, J. R. Cheeseman, G. Scalmani, V. Barone, 
 G. A. Petersson, H. Nakatsuji, X. Li, M. Caricato, A. V. Marenich, 
 J. Bloino, B. G. Janesko, R. Gomperts, B. Mennucci, H. P. Hratchian, 
 J. V. Ortiz, A. F. Izmaylov, J. L. Sonnenberg, D. Williams-Young, 
 F. Ding, F. Lipparini, F. Egidi, J. Goings, B. Peng, A. Petrone, 
 T. Henderson, D. Ranasinghe, V. G. Zakrzewski, J. Gao, N. Rega, 
 G. Zheng, W. Liang, M. Hada, M. Ehara, K. Toyota, R. Fukuda, 
 J. Hasegawa, M. Ishida, T. Nakajima, Y. Honda, O. Kitao, H. Nakai, 
 T. Vreven, K. Throssell, J. A. Montgomery, Jr., J. E. Peralta, 
 F. Ogliaro, M. J. Bearpark, J. J. Heyd, E. N. Brothers, K. N. Kudin, 
 V. N. Staroverov, T. A. Keith, R. Kobayashi, J. Normand, 
 K. Raghavachari, A. P. Rendell, J. C. Burant, S. S. Iyengar, 
 J. Tomasi, M. Cossi, J. M. Millam, M. Klene, C. Adamo, R. Cammi, 
 J. W. Ochterski, R. L. Martin, K. Morokuma, O. Farkas, 
 J. B. Foresman, and D. J. Fox, Gaussian, Inc., Wallingford CT, 2016.
 
 ******************************************
 Gaussian 16:  EM64L-G16RevA.03 25-Dec-2016
                 5-May-2021 
 ******************************************
 %chk=gaussian_00785_1_2.chk
 %nproc=2
 Will use up to    2 processors via shared memory.
 %mem=4000Mb
 -------------
 #p 6-31g* mp2
 -------------
 1/38=1,172=1/1;
 2/12=2,17=6,18=5,40=1/2;
 3/5=1,6=6,7=1,11=9,25=1,30=1/1,2,3;
 4//1;
 5/5=2,38=5/2;
 8/10=2/1;
 9/16=-3/6;
 6/7=2,8=2,9=2,10=2/1;
 99/5=1,9=1/99;
 Leave Link    1 at Wed May  5 23:20:08 2021, MaxMem=   524288000 cpu:               0.1 elap:               0.1
 (Enter /opt/gaussian/g16_legacy/l101.exe)
 ------------------------------------------------------
 Input file generated by CHIRIPA (05-May-2021 14:53:12)
 ------------------------------------------------------
 Symbolic Z-matrix:
 Charge =  0 Multiplicity = 1
 C                    -0.666    -0.374     0. 
 C                    -1.882     0.553     0. 
 C                    -3.207    -0.21      0. 
 H                    -0.713    -1.03     -0.88 
 H                    -0.713    -1.029     0.881 
 H                    -1.832     1.207    -0.88 
 H                    -1.832     1.207     0.88 
 H                    -3.283    -0.85      0.885 
 H                    -3.283    -0.85     -0.885 
 H                    -4.063     0.472     0. 
 C                     0.666     0.374     0. 
 C                     1.882    -0.553     0. 
 C                     3.207     0.21      0. 
 H                     0.713     1.029    -0.881 
 H                     0.713     1.03      0.88 
 H                     1.832    -1.207    -0.88 
 H                     1.832    -1.207     0.88 
 H                     3.283     0.85      0.885 
 H                     3.283     0.85     -0.885 
 H                     4.063    -0.472     0. 
 C                    -2.31792  -0.58384  -4.48233 
 C                    -3.39635  -0.2666   -5.31471 
 C                    -4.57803  -1.01177  -5.26085 
 C                    -4.64717  -2.07234  -4.35879 
 C                    -3.58998  -2.41313  -3.51647 
 C                    -2.41799  -1.65421  -3.58745 
 H                    -1.40373   0.00037  -4.53083 
 H                    -3.32146   0.56412  -6.01066 
 H                    -5.42817  -0.78798  -5.89377 
 H                    -3.69443  -3.24695  -2.83291 
 H                    -1.58206  -1.90287  -2.93981 
 N                    -5.89302  -2.8685   -4.29271 
 O                    -5.92877  -3.79803  -3.48938 
 O                    -6.81019  -2.54792  -5.04549 
 
 ITRead=  0  0  0  0  0  0  0  0  0  0  0  0  0  0  0  0  0  0  0  0
 ITRead=  0  0  0  0  0  0  0  0  0  0  0  0  0  0
 MicOpt= -1 -1 -1 -1 -1 -1 -1 -1 -1 -1 -1 -1 -1 -1 -1 -1 -1 -1 -1 -1
 MicOpt= -1 -1 -1 -1 -1 -1 -1 -1 -1 -1 -1 -1 -1 -1
 NAtoms=     34 NQM=       34 NQMF=       0 NMMI=      0 NMMIF=      0
                NMic=       0 NMicF=      0.
                    Isotopes and Nuclear Properties:
 (Nuclear quadrupole moments (NQMom) in fm**2, nuclear magnetic moments (NMagM)
  in nuclear magnetons)

  Atom         1           2           3           4           5           6           7           8           9          10
 IAtWgt=          12          12          12           1           1           1           1           1           1           1
 AtmWgt=  12.0000000  12.0000000  12.0000000   1.0078250   1.0078250   1.0078250   1.0078250   1.0078250   1.0078250   1.0078250
 NucSpn=           0           0           0           1           1           1           1           1           1           1
 AtZEff=  -0.0000000  -0.0000000  -0.0000000  -0.0000000  -0.0000000  -0.0000000  -0.0000000  -0.0000000  -0.0000000  -0.0000000
 NQMom=    0.0000000   0.0000000   0.0000000   0.0000000   0.0000000   0.0000000   0.0000000   0.0000000   0.0000000   0.0000000
 NMagM=    0.0000000   0.0000000   0.0000000   2.7928460   2.7928460   2.7928460   2.7928460   2.7928460   2.7928460   2.7928460
 AtZNuc=   6.0000000   6.0000000   6.0000000   1.0000000   1.0000000   1.0000000   1.0000000   1.0000000   1.0000000   1.0000000

  Atom        11          12          13          14          15          16          17          18          19          20
 IAtWgt=          12          12          12           1           1           1           1           1           1           1
 AtmWgt=  12.0000000  12.0000000  12.0000000   1.0078250   1.0078250   1.0078250   1.0078250   1.0078250   1.0078250   1.0078250
 NucSpn=           0           0           0           1           1           1           1           1           1           1
 AtZEff=  -0.0000000  -0.0000000  -0.0000000  -0.0000000  -0.0000000  -0.0000000  -0.0000000  -0.0000000  -0.0000000  -0.0000000
 NQMom=    0.0000000   0.0000000   0.0000000   0.0000000   0.0000000   0.0000000   0.0000000   0.0000000   0.0000000   0.0000000
 NMagM=    0.0000000   0.0000000   0.0000000   2.7928460   2.7928460   2.7928460   2.7928460   2.7928460   2.7928460   2.7928460
 AtZNuc=   6.0000000   6.0000000   6.0000000   1.0000000   1.0000000   1.0000000   1.0000000   1.0000000   1.0000000   1.0000000

  Atom        21          22          23          24          25          26          27          28          29          30
 IAtWgt=          12          12          12          12          12          12           1           1           1           1
 AtmWgt=  12.0000000  12.0000000  12.0000000  12.0000000  12.0000000  12.0000000   1.0078250   1.0078250   1.0078250   1.0078250
 NucSpn=           0           0           0           0           0           0           1           1           1           1
 AtZEff=  -0.0000000  -0.0000000  -0.0000000  -0.0000000  -0.0000000  -0.0000000  -0.0000000  -0.0000000  -0.0000000  -0.0000000
 NQMom=    0.0000000   0.0000000   0.0000000   0.0000000   0.0000000   0.0000000   0.0000000   0.0000000   0.0000000   0.0000000
 NMagM=    0.0000000   0.0000000   0.0000000   0.0000000   0.0000000   0.0000000   2.7928460   2.7928460   2.7928460   2.7928460
 AtZNuc=   6.0000000   6.0000000   6.0000000   6.0000000   6.0000000   6.0000000   1.0000000   1.0000000   1.0000000   1.0000000

  Atom        31          32          33          34
 IAtWgt=           1          14          16          16
 AtmWgt=   1.0078250  14.0030740  15.9949146  15.9949146
 NucSpn=           1           2           0           0
 AtZEff=  -0.0000000  -0.0000000  -0.0000000  -0.0000000
 NQMom=    0.0000000   2.0440000   0.0000000   0.0000000
 NMagM=    2.7928460   0.4037610   0.0000000   0.0000000
 AtZNuc=   1.0000000   7.0000000   8.0000000   8.0000000
 Leave Link  101 at Wed May  5 23:20:09 2021, MaxMem=   524288000 cpu:               0.2 elap:               0.1
 (Enter /opt/gaussian/g16_legacy/l202.exe)
                          Input orientation:                          
 ---------------------------------------------------------------------
 Center     Atomic      Atomic             Coordinates (Angstroms)
 Number     Number       Type             X           Y           Z
 ---------------------------------------------------------------------
      1          6           0       -0.666000   -0.374000    0.000000
      2          6           0       -1.882000    0.553000    0.000000
      3          6           0       -3.207000   -0.210000    0.000000
      4          1           0       -0.713000   -1.030000   -0.880000
      5          1           0       -0.713000   -1.029000    0.881000
      6          1           0       -1.832000    1.207000   -0.880000
      7          1           0       -1.832000    1.207000    0.880000
      8          1           0       -3.283000   -0.850000    0.885000
      9          1           0       -3.283000   -0.850000   -0.885000
     10          1           0       -4.063000    0.472000    0.000000
     11          6           0        0.666000    0.374000    0.000000
     12          6           0        1.882000   -0.553000    0.000000
     13          6           0        3.207000    0.210000    0.000000
     14          1           0        0.713000    1.029000   -0.881000
     15          1           0        0.713000    1.030000    0.880000
     16          1           0        1.832000   -1.207000   -0.880000
     17          1           0        1.832000   -1.207000    0.880000
     18          1           0        3.283000    0.850000    0.885000
     19          1           0        3.283000    0.850000   -0.885000
     20          1           0        4.063000   -0.472000    0.000000
     21          6           0       -2.317915   -0.583841   -4.482335
     22          6           0       -3.396353   -0.266598   -5.314711
     23          6           0       -4.578032   -1.011771   -5.260849
     24          6           0       -4.647165   -2.072337   -4.358790
     25          6           0       -3.589976   -2.413131   -3.516472
     26          6           0       -2.417992   -1.654208   -3.587450
     27          1           0       -1.403725    0.000368   -4.530825
     28          1           0       -3.321460    0.564120   -6.010659
     29          1           0       -5.428174   -0.787982   -5.893774
     30          1           0       -3.694431   -3.246951   -2.832913
     31          1           0       -1.582062   -1.902869   -2.939813
     32          7           0       -5.893024   -2.868497   -4.292708
     33          8           0       -5.928774   -3.798029   -3.489384
     34          8           0       -6.810187   -2.547919   -5.045488
 ---------------------------------------------------------------------
                    Distance matrix (angstroms):
                    1          2          3          4          5
     1  C    0.000000
     2  C    1.529047   0.000000
     3  C    2.546287   1.528985   0.000000
     4  H    1.098610   2.155655   2.768905   0.000000
     5  H    1.098815   2.155330   2.768927   1.761000   0.000000
     6  H    2.152561   1.097550   2.161692   2.501266   3.058264
     7  H    2.152561   1.097550   2.161692   3.058420   2.500372
     8  H    2.803300   2.171275   1.094806   3.122903   2.576229
     9  H    2.803300   2.171275   1.094806   2.576301   3.123411
    10  H    3.500761   2.182504   1.094468   3.775302   3.775137
    11  C    1.527654   2.554280   3.916782   2.155750   2.155507
    12  C    2.554280   3.923128   5.100546   2.781358   2.781504
    13  C    3.916782   5.100546   6.427736   4.204569   4.204484
    14  H    2.155507   2.781504   4.204484   2.504587   3.061615
    15  H    2.155750   2.781358   4.204569   3.061809   2.504587
    16  H    2.776381   4.203070   5.211519   2.551148   3.099973
    17  H    2.776381   4.203070   5.211519   3.099347   2.551217
    18  H    4.228002   5.248682   6.635279   4.755801   4.415730
    19  H    4.228002   5.248682   6.635279   4.416157   4.755777
    20  H    4.730015   6.032715   7.274720   4.888347   4.888413
    21  C    4.781651   4.644756   4.584927   3.968832   5.615984
    22  C    5.975995   5.586695   5.318384   5.239258   6.794739
    23  C    6.586902   6.115033   5.495371   5.842144   7.256795
    24  C    6.142725   5.791164   4.953930   5.354073   6.634878
    25  C    5.007321   4.907208   4.167257   4.140172   5.434204
    26  C    4.192637   4.246040   3.946906   3.259896   4.823373
    27  H    4.605732   4.589393   4.881028   3.855812   5.551986
    28  H    6.637737   6.180630   6.061385   5.972348   7.539036
    29  H    7.588561   7.007864   6.324891   6.886898   8.257634
    30  H    5.044863   5.074439   4.181633   4.197341   5.253702
    31  H    3.437893   3.842363   3.761480   2.400000   4.014664
    32  N    7.209136   6.798698   5.719237   6.469876   7.548752
    33  O    7.183075   6.890837   5.697175   6.455631   7.346569
    34  O    8.242203   7.704523   6.626143   7.538638   8.637480
                    6          7          8          9         10
     6  H    0.000000
     7  H    1.760000   0.000000
     8  H    3.074390   2.517275   0.000000
     9  H    2.517275   3.074390   1.770000   0.000000
    10  H    2.508383   2.508383   1.771810   1.771810   0.000000
    11  C    2.776381   2.776381   4.228002   4.228002   4.730015
    12  C    4.203070   4.203070   5.248682   5.248682   6.032715
    13  C    5.211519   5.211519   6.635279   6.635279   7.274720
    14  H    2.551217   3.099973   4.755777   4.415730   4.888413
    15  H    3.099347   2.551148   4.416157   4.755801   4.888347
    16  H    4.387743   4.727567   5.422721   5.127446   6.192291
    17  H    4.727567   4.387743   5.127446   5.422721   6.192291
    18  H    5.422721   5.127446   6.782504   7.009654   7.408767
    19  H    5.127446   5.422721   7.009654   6.782504   7.408767
    20  H    6.192291   6.192291   7.408767   7.408767   8.180649
    21  C    4.052165   5.674316   5.459901   3.734039   4.924576
    22  C    4.928017   6.556915   6.228132   4.469401   5.407042
    23  C    5.626320   7.083337   6.282892   4.566326   5.490297
    24  C    5.548079   6.791474   5.554493   3.927120   5.080743
    25  C    4.811113   5.960268   4.680873   3.076078   4.573107
    26  C    3.982485   5.337416   4.625775   2.949275   4.482924
    27  H    3.868837   5.560252   5.795340   4.188895   5.274709
    28  H    5.381027   7.079051   7.039270   5.317292   6.056929
    29  H    6.484624   7.924420   7.110372   5.449168   6.179630
    30  H    5.207706   6.090324   4.442694   3.115929   4.689545
    31  H    3.738527   4.932010   4.316355   2.867748   4.520792
    32  N    6.689407   7.736828   6.139643   4.743314   5.738924
    33  O    6.974436   7.805472   5.901375   4.740655   5.821517
    34  O    7.498870   8.601928   7.105960   5.712586   6.490292
                   11         12         13         14         15
    11  C    0.000000
    12  C    1.529047   0.000000
    13  C    2.546287   1.528985   0.000000
    14  H    1.098815   2.155330   2.768927   0.000000
    15  H    1.098610   2.155655   2.768905   1.761000   0.000000
    16  H    2.152561   1.097550   2.161692   2.500372   3.058420
    17  H    2.152561   1.097550   2.161692   3.058264   2.501266
    18  H    2.803300   2.171275   1.094806   3.123411   2.576301
    19  H    2.803300   2.171275   1.094806   2.576229   3.122903
    20  H    3.500761   2.182504   1.094468   3.775137   3.775302
    21  C    5.469235   6.142602   7.158645   4.975672   6.367540
    22  C    6.720062   7.495945   8.489851   6.182487   7.546018
    23  C    7.556240   8.343801   9.475019   7.165392   8.359059
    24  C    7.294747   7.996088   9.268011   7.102442   8.111768
    25  C    6.184416   6.765219   8.089825   6.108157   7.049803
    26  C    5.147274   5.707222   6.927164   4.932300   6.079983
    27  H    4.995171   5.624107   6.467697   4.342791   5.900652
    28  H    7.215539   8.028199   8.881116   6.542659   7.998443
    29  H    8.557203   9.393106  10.502322   8.132856   9.322183
    30  H    6.336406   6.810239   8.222266   6.443537   7.176593
    31  H    4.345160   4.739660   6.003485   4.254630   5.334792
    32  N    8.483037   9.178228  10.522116   8.394628   9.251743
    33  O    8.548255   9.149547  10.568939   8.614931   9.301319
    34  O    9.480925  10.246500  11.550199   9.313198  10.223075
                   16         17         18         19         20
    16  H    0.000000
    17  H    1.760000   0.000000
    18  H    3.074390   2.517275   0.000000
    19  H    2.517275   3.074390   1.770000   0.000000
    20  H    2.508383   2.508383   1.771810   1.771810   0.000000
    21  C    5.530546   6.809167   7.888880   6.809329   7.798712
    22  C    6.920021   8.160544   9.181338   8.092150   9.161348
    23  C    7.766496   8.879001  10.150541   9.187495  10.130909
    24  C    7.404753   8.376951   9.946100   9.137548   9.870517
    25  C    6.148460   7.083893   8.789697   8.050495   8.643009
    26  C    5.058924   6.182276   7.666497   6.787901   7.501378
    27  H    5.025552   6.419087   7.212380   5.998275   7.115939
    28  H    7.484563   8.784998   9.552525   8.364987   9.577673
    29  H    8.833099   9.938295  11.158822  10.181127  11.176708
    30  H    6.206183   6.963373   8.904630   8.322495   8.712261
    31  H    4.047577   5.170205   6.773205   5.955617   6.523543
    32  N    8.607157   9.444230  11.172972  10.470870  11.103736
    33  O    8.587894   9.275482  11.206971  10.641606  11.093864
    34  O    9.686937  10.563942  12.189707  11.433632  12.165220
                   21         22         23         24         25
    21  C    0.000000
    22  C    1.398757   0.000000
    23  C    2.428443   1.398052   0.000000
    24  C    2.767000   2.395623   1.394019   0.000000
    25  C    2.428442   2.806912   2.446000   1.394019   0.000000
    26  C    1.398757   2.422000   2.806913   2.395623   1.398052
    27  H    1.085999   2.157849   3.410804   3.852999   3.410804
    28  H    2.158863   1.086299   2.150493   3.381874   3.893211
    29  H    3.421629   2.176109   1.083244   2.148422   3.416379
    30  H    3.421629   3.889817   3.416380   2.148423   1.083245
    31  H    2.158863   3.407224   3.893212   3.381874   2.150493
    32  N    4.247001   3.748031   2.472637   1.480001   2.472636
    33  O    4.935105   4.713383   3.567328   2.318707   2.718208
    34  O    4.935104   4.114750   2.718207   2.318706   3.567326
                   26         27         28         29         30
    26  C    0.000000
    27  H    2.157850   0.000000
    28  H    3.407224   2.487053   0.000000
    29  H    3.889817   4.321495   2.506010   0.000000
    30  H    2.176110   4.321495   4.976087   4.292000   0.000000
    31  H    1.086299   2.487053   4.306000   4.976086   2.506010
    32  N    3.748031   5.333000   4.620298   2.666091   2.666091
    33  O    4.114751   5.999041   5.673029   3.884852   2.393100
    34  O    4.713382   5.999040   4.773632   2.393100   3.884851
                   31         32         33         34
    31  H    0.000000
    32  N    4.620298   0.000000
    33  O    4.773632   1.229080   0.000000
    34  O    5.673028   1.229079   2.182000   0.000000
 Stoichiometry    C12H19NO2
 Framework group  C1[X(C12H19NO2)]
 Deg. of freedom    96
 Full point group                 C1      NOp   1
 Largest Abelian subgroup         C1      NOp   1
 Largest concise Abelian subgroup C1      NOp   1
                         Standard orientation:                         
 ---------------------------------------------------------------------
 Center     Atomic      Atomic             Coordinates (Angstroms)
 Number     Number       Type             X           Y           Z
 ---------------------------------------------------------------------
      1          6           0       -2.988179    0.969387    0.041057
      2          6           0       -2.297641    1.435534    1.323184
      3          6           0       -1.040228    2.261618    1.050615
      4          1           0       -2.280311    0.376720   -0.554438
      5          1           0       -3.249436    1.847018   -0.566317
      6          1           0       -2.039004    0.557356    1.928599
      7          1           0       -3.007294    2.026999    1.915786
      8          1           0       -1.285194    3.154981    0.467096
      9          1           0       -0.311402    1.676989    0.479982
     10          1           0       -0.562511    2.584478    1.980888
     11          6           0       -4.246814    0.142354    0.297146
     12          6           0       -4.937352   -0.323793   -0.984981
     13          6           0       -6.194764   -1.149877   -0.712412
     14          1           0       -3.985557   -0.735278    0.904519
     15          1           0       -4.954682    0.735021    0.892640
     16          1           0       -4.227698   -0.915258   -1.577583
     17          1           0       -5.195989    0.554384   -1.590396
     18          1           0       -6.923591   -0.565248   -0.141780
     19          1           0       -5.949799   -2.043241   -0.128894
     20          1           0       -6.672482   -1.472737   -1.642685
     21          6           0        0.834343   -1.876604    0.432017
     22          6           0        2.048499   -2.067651    1.099735
     23          6           0        3.158695   -1.274336    0.795329
     24          6           0        3.018731   -0.294835   -0.186648
     25          6           0        1.822493   -0.080208   -0.869465
     26          6           0        0.725408   -0.885240   -0.548724
     27          1           0       -0.022991   -2.497421    0.674832
     28          1           0        2.136007   -2.836797    1.861839
     29          1           0        4.110526   -1.400812    1.296766
     30          1           0        1.765890    0.694526   -1.624451
     31          1           0       -0.216277   -0.734624   -1.068906
     32          7           0        4.187107    0.551215   -0.517557
     33          8           0        4.037939    1.407394   -1.386662
     34          8           0        5.229922    0.342149    0.098449
 ---------------------------------------------------------------------
 Rotational constants (GHZ):           1.0387876           0.1773676           0.1671575
 Leave Link  202 at Wed May  5 23:20:09 2021, MaxMem=   524288000 cpu:               0.0 elap:               0.1
 (Enter /opt/gaussian/g16_legacy/l301.exe)
 Standard basis: 6-31G(d) (6D, 7F)
 Ernie: Thresh=  0.10000D-02 Tol=  0.10000D-05 Strict=F.
 There are   263 symmetry adapted cartesian basis functions of A   symmetry.
 There are   263 symmetry adapted basis functions of A   symmetry.
   263 basis functions,   496 primitive gaussians,   263 cartesian basis functions
    57 alpha electrons       57 beta electrons
       nuclear repulsion energy       917.1917122226 Hartrees.
 IExCor=    0 DFT=F Ex=HF Corr=None ExCW=0 ScaHFX=  1.000000
 ScaDFX=  1.000000  1.000000  1.000000  1.000000 ScalE2=  1.000000  1.000000
 IRadAn=      5 IRanWt=     -1 IRanGd=            0 ICorTp=0 IEmpDi=  4
 NAtoms=   34 NActive=   34 NUniq=   34 SFac= 1.00D+00 NAtFMM=   60 NAOKFM=F Big=F
 Integral buffers will be    131072 words long.
 Raffenetti 1 integral format.
 Two-electron integral symmetry is turned on.
 Leave Link  301 at Wed May  5 23:20:09 2021, MaxMem=   524288000 cpu:               0.1 elap:               0.1
 (Enter /opt/gaussian/g16_legacy/l302.exe)
 NPDir=0 NMtPBC=     1 NCelOv=     1 NCel=       1 NClECP=     1 NCelD=      1
         NCelK=      1 NCelE2=     1 NClLst=     1 CellRange=     0.0.
 One-electron integrals computed using PRISM.
 One-electron integral symmetry used in STVInt
 NBasis=   263 RedAO= T EigKep=  4.78D-04  NBF=   263
 NBsUse=   263 1.00D-06 EigRej= -1.00D+00 NBFU=   263
 Leave Link  302 at Wed May  5 23:20:09 2021, MaxMem=   524288000 cpu:               0.4 elap:               0.3
 (Enter /opt/gaussian/g16_legacy/l303.exe)
 DipDrv:  MaxL=1.
 Leave Link  303 at Wed May  5 23:20:10 2021, MaxMem=   524288000 cpu:               0.0 elap:               0.0
 (Enter /opt/gaussian/g16_legacy/l401.exe)
 ExpMin= 1.61D-01 ExpMax= 5.48D+03 ExpMxC= 8.25D+02 IAcc=3 IRadAn=         5 AccDes= 0.00D+00
 Harris functional with IExCor=  205 and IRadAn=       5 diagonalized for initial guess.
 HarFok:  IExCor=  205 AccDes= 0.00D+00 IRadAn=         5 IDoV= 1 UseB2=F ITyADJ=14
 ICtDFT=  3500011 ScaDFX=  1.000000  1.000000  1.000000  1.000000
 FoFCou: FMM=F IPFlag=           0 FMFlag=      100000 FMFlg1=           0
         NFxFlg=           0 DoJE=T BraDBF=F KetDBF=T FulRan=T
         wScrn=  0.000000 ICntrl=       500 IOpCl=  0 I1Cent=   200000004 NGrid=           0
         NMat0=    1 NMatS0=      1 NMatT0=    0 NMatD0=    1 NMtDS0=    0 NMtDT0=    0
 Petite list used in FoFCou.
 Harris En= -670.656129193947    
 JPrj=0 DoOrth=F DoCkMO=F.
 Leave Link  401 at Wed May  5 23:20:14 2021, MaxMem=   524288000 cpu:               9.2 elap:               4.8
 (Enter /opt/gaussian/g16_legacy/l502.exe)
 Integral symmetry usage will be decided dynamically.
 Closed shell SCF:
 Using DIIS extrapolation, IDIIS=  1040.
 NGot=   524288000 LenX=   524144919 LenY=   524075309
 Requested convergence on RMS density matrix=1.00D-08 within 128 cycles.
 Requested convergence on MAX density matrix=1.00D-06.
 Requested convergence on             energy=1.00D-06.
 No special actions if energy rises.
 Fock matrices will be formed incrementally for  20 cycles.
 Integral accuracy reduced to 1.0D-05 until final iterations.

 Cycle   1  Pass 0  IDiag  1:
 FoFJK:  IHMeth= 1 ICntrl=       0 DoSepK=F KAlg= 0 I1Cent=           0 FoldK=F
 IRaf= 760000000 NMat=       1 IRICut=       1 DoRegI=T DoRafI=F ISym2E= 0 IDoP0=0 IntGTp=1.
 FoFCou: FMM=F IPFlag=           0 FMFlag=      100000 FMFlg1=           0
         NFxFlg=           0 DoJE=F BraDBF=F KetDBF=F FulRan=T
         wScrn=  0.000000 ICntrl=         0 IOpCl=  0 I1Cent=           0 NGrid=           0
         NMat0=    1 NMatS0=      1 NMatT0=    0 NMatD0=    1 NMtDS0=    0 NMtDT0=    0
 Symmetry not used in FoFCou.
 E= -668.741692192282    
 DIIS: error= 6.14D-02 at cycle   1 NSaved=   1.
 NSaved= 1 IEnMin= 1 EnMin= -668.741692192282     IErMin= 1 ErrMin= 6.14D-02
 ErrMax= 6.14D-02  0.00D+00 EMaxC= 1.00D-01 BMatC= 1.17D+00 BMatP= 1.17D+00
 IDIUse=3 WtCom= 3.86D-01 WtEn= 6.14D-01
 Coeff-Com:  0.100D+01
 Coeff-En:   0.100D+01
 Coeff:      0.100D+01
 Gap=     0.555 Goal=   None    Shift=    0.000
 GapD=    0.555 DampG=2.000 DampE=0.500 DampFc=1.0000 IDamp=-1.
 RMSDP=4.59D-03 MaxDP=1.18D-01              OVMax= 1.51D-01

 Cycle   2  Pass 0  IDiag  1:
 RMSU=  4.46D-03    CP:  9.48D-01
 E= -669.357217730007     Delta-E=       -0.615525537725 Rises=F Damp=F
 DIIS: error= 2.51D-02 at cycle   2 NSaved=   2.
 NSaved= 2 IEnMin= 2 EnMin= -669.357217730007     IErMin= 2 ErrMin= 2.51D-02
 ErrMax= 2.51D-02  0.00D+00 EMaxC= 1.00D-01 BMatC= 2.18D-01 BMatP= 1.17D+00
 IDIUse=3 WtCom= 7.49D-01 WtEn= 2.51D-01
 Coeff-Com:  0.247D+00 0.753D+00
 Coeff-En:   0.000D+00 0.100D+01
 Coeff:      0.185D+00 0.815D+00
 Gap=     0.571 Goal=   None    Shift=    0.000
 RMSDP=1.81D-03 MaxDP=7.85D-02 DE=-6.16D-01 OVMax= 1.21D-01

 Cycle   3  Pass 0  IDiag  1:
 RMSU=  1.43D-03    CP:  9.57D-01  7.57D-01
 E= -669.507923572712     Delta-E=       -0.150705842704 Rises=F Damp=F
 DIIS: error= 1.21D-02 at cycle   3 NSaved=   3.
 NSaved= 3 IEnMin= 3 EnMin= -669.507923572712     IErMin= 3 ErrMin= 1.21D-02
 ErrMax= 1.21D-02  0.00D+00 EMaxC= 1.00D-01 BMatC= 3.46D-02 BMatP= 2.18D-01
 IDIUse=3 WtCom= 8.79D-01 WtEn= 1.21D-01
 Coeff-Com: -0.933D-02 0.263D+00 0.746D+00
 Coeff-En:   0.000D+00 0.000D+00 0.100D+01
 Coeff:     -0.820D-02 0.231D+00 0.777D+00
 Gap=     0.426 Goal=   None    Shift=    0.000
 RMSDP=5.85D-04 MaxDP=3.12D-02 DE=-1.51D-01 OVMax= 4.86D-02

 Cycle   4  Pass 0  IDiag  1:
 RMSU=  3.97D-04    CP:  9.56D-01  8.32D-01  8.14D-01
 E= -669.532392653277     Delta-E=       -0.024469080566 Rises=F Damp=F
 DIIS: error= 3.46D-03 at cycle   4 NSaved=   4.
 NSaved= 4 IEnMin= 4 EnMin= -669.532392653277     IErMin= 4 ErrMin= 3.46D-03
 ErrMax= 3.46D-03  0.00D+00 EMaxC= 1.00D-01 BMatC= 2.71D-03 BMatP= 3.46D-02
 IDIUse=3 WtCom= 9.65D-01 WtEn= 3.46D-02
 Coeff-Com: -0.132D-01 0.422D-01 0.288D+00 0.683D+00
 Coeff-En:   0.000D+00 0.000D+00 0.000D+00 0.100D+01
 Coeff:     -0.128D-01 0.408D-01 0.278D+00 0.694D+00
 Gap=     0.412 Goal=   None    Shift=    0.000
 RMSDP=1.67D-04 MaxDP=7.65D-03 DE=-2.45D-02 OVMax= 1.37D-02

 Cycle   5  Pass 0  IDiag  1:
 RMSU=  9.68D-05    CP:  9.55D-01  8.35D-01  8.83D-01  7.69D-01
 E= -669.534618569488     Delta-E=       -0.002225916211 Rises=F Damp=F
 DIIS: error= 4.94D-04 at cycle   5 NSaved=   5.
 NSaved= 5 IEnMin= 5 EnMin= -669.534618569488     IErMin= 5 ErrMin= 4.94D-04
 ErrMax= 4.94D-04  0.00D+00 EMaxC= 1.00D-01 BMatC= 5.54D-05 BMatP= 2.71D-03
 IDIUse=3 WtCom= 9.95D-01 WtEn= 4.94D-03
 Coeff-Com:  0.202D-02-0.188D-01-0.755D-01-0.393D-01 0.113D+01
 Coeff-En:   0.000D+00 0.000D+00 0.000D+00 0.000D+00 0.100D+01
 Coeff:      0.201D-02-0.187D-01-0.751D-01-0.391D-01 0.113D+01
 Gap=     0.414 Goal=   None    Shift=    0.000
 RMSDP=5.29D-05 MaxDP=1.14D-03 DE=-2.23D-03 OVMax= 4.57D-03

 Cycle   6  Pass 0  IDiag  1:
 RMSU=  2.44D-05    CP:  9.55D-01  8.37D-01  8.97D-01  8.52D-01  1.26D+00
 E= -669.534725127095     Delta-E=       -0.000106557607 Rises=F Damp=F
 DIIS: error= 1.40D-04 at cycle   6 NSaved=   6.
 NSaved= 6 IEnMin= 6 EnMin= -669.534725127095     IErMin= 6 ErrMin= 1.40D-04
 ErrMax= 1.40D-04  0.00D+00 EMaxC= 1.00D-01 BMatC= 5.70D-06 BMatP= 5.54D-05
 IDIUse=3 WtCom= 9.99D-01 WtEn= 1.40D-03
 Coeff-Com:  0.125D-02-0.636D-02-0.336D-01-0.538D-01 0.138D+00 0.954D+00
 Coeff-En:   0.000D+00 0.000D+00 0.000D+00 0.000D+00 0.000D+00 0.100D+01
 Coeff:      0.125D-02-0.635D-02-0.335D-01-0.537D-01 0.138D+00 0.954D+00
 Gap=     0.413 Goal=   None    Shift=    0.000
 RMSDP=1.73D-05 MaxDP=5.03D-04 DE=-1.07D-04 OVMax= 1.61D-03

 Cycle   7  Pass 0  IDiag  1:
 RMSU=  8.58D-06    CP:  9.55D-01  8.38D-01  9.00D-01  8.64D-01  1.39D+00
                    CP:  1.18D+00
 E= -669.534739689607     Delta-E=       -0.000014562512 Rises=F Damp=F
 DIIS: error= 1.27D-04 at cycle   7 NSaved=   7.
 NSaved= 7 IEnMin= 7 EnMin= -669.534739689607     IErMin= 7 ErrMin= 1.27D-04
 ErrMax= 1.27D-04  0.00D+00 EMaxC= 1.00D-01 BMatC= 1.08D-06 BMatP= 5.70D-06
 IDIUse=3 WtCom= 9.99D-01 WtEn= 1.27D-03
 Coeff-Com: -0.265D-03 0.241D-02 0.967D-02 0.737D-02-0.151D+00-0.372D-02
 Coeff-Com:  0.114D+01
 Coeff-En:   0.000D+00 0.000D+00 0.000D+00 0.000D+00 0.000D+00 0.000D+00
 Coeff-En:   0.100D+01
 Coeff:     -0.264D-03 0.241D-02 0.966D-02 0.736D-02-0.151D+00-0.371D-02
 Coeff:      0.114D+01
 Gap=     0.414 Goal=   None    Shift=    0.000
 RMSDP=8.70D-06 MaxDP=3.08D-04 DE=-1.46D-05 OVMax= 1.31D-03

 Initial convergence to 1.0D-05 achieved.  Increase integral accuracy.
 Cycle   8  Pass 1  IDiag  1:
 E= -669.534744961943     Delta-E=       -0.000005272336 Rises=F Damp=F
 DIIS: error= 4.87D-05 at cycle   1 NSaved=   1.
 NSaved= 1 IEnMin= 1 EnMin= -669.534744961943     IErMin= 1 ErrMin= 4.87D-05
 ErrMax= 4.87D-05  0.00D+00 EMaxC= 1.00D-01 BMatC= 3.95D-07 BMatP= 3.95D-07
 IDIUse=1 WtCom= 1.00D+00 WtEn= 0.00D+00
 Coeff-Com:  0.100D+01
 Coeff:      0.100D+01
 Gap=     0.414 Goal=   None    Shift=    0.000
 RMSDP=8.70D-06 MaxDP=3.08D-04 DE=-5.27D-06 OVMax= 5.15D-04

 Cycle   9  Pass 1  IDiag  1:
 RMSU=  1.41D-05    CP:  1.00D+00
 E= -669.534745955100     Delta-E=       -0.000000993156 Rises=F Damp=F
 DIIS: error= 4.43D-05 at cycle   2 NSaved=   2.
 NSaved= 2 IEnMin= 2 EnMin= -669.534745955100     IErMin= 2 ErrMin= 4.43D-05
 ErrMax= 4.43D-05  0.00D+00 EMaxC= 1.00D-01 BMatC= 1.08D-07 BMatP= 3.95D-07
 IDIUse=1 WtCom= 1.00D+00 WtEn= 0.00D+00
 Coeff-Com: -0.677D-02 0.101D+01
 Coeff:     -0.677D-02 0.101D+01
 Gap=     0.414 Goal=   None    Shift=    0.000
 RMSDP=2.31D-06 MaxDP=6.54D-05 DE=-9.93D-07 OVMax= 3.76D-04

 Cycle  10  Pass 1  IDiag  1:
 RMSU=  2.07D-06    CP:  1.00D+00  1.07D+00
 E= -669.534746340264     Delta-E=       -0.000000385165 Rises=F Damp=F
 DIIS: error= 1.66D-05 at cycle   3 NSaved=   3.
 NSaved= 3 IEnMin= 3 EnMin= -669.534746340264     IErMin= 3 ErrMin= 1.66D-05
 ErrMax= 1.66D-05  0.00D+00 EMaxC= 1.00D-01 BMatC= 4.90D-08 BMatP= 1.08D-07
 IDIUse=1 WtCom= 1.00D+00 WtEn= 0.00D+00
 Coeff-Com: -0.282D+00 0.109D+00 0.117D+01
 Coeff:     -0.282D+00 0.109D+00 0.117D+01
 Gap=     0.414 Goal=   None    Shift=    0.000
 RMSDP=2.17D-06 MaxDP=5.92D-05 DE=-3.85D-07 OVMax= 3.31D-04

 Cycle  11  Pass 1  IDiag  1:
 RMSU=  1.33D-06    CP:  1.00D+00  1.12D+00  1.75D+00
 E= -669.534746577856     Delta-E=       -0.000000237591 Rises=F Damp=F
 DIIS: error= 1.31D-05 at cycle   4 NSaved=   4.
 NSaved= 4 IEnMin= 4 EnMin= -669.534746577856     IErMin= 4 ErrMin= 1.31D-05
 ErrMax= 1.31D-05  0.00D+00 EMaxC= 1.00D-01 BMatC= 9.32D-09 BMatP= 4.90D-08
 IDIUse=1 WtCom= 1.00D+00 WtEn= 0.00D+00
 Coeff-Com:  0.211D-01-0.389D+00-0.105D+00 0.147D+01
 Coeff:      0.211D-01-0.389D+00-0.105D+00 0.147D+01
 Gap=     0.414 Goal=   None    Shift=    0.000
 RMSDP=1.73D-06 MaxDP=4.98D-05 DE=-2.38D-07 OVMax= 2.71D-04

 Cycle  12  Pass 1  IDiag  1:
 RMSU=  2.06D-07    CP:  1.00D+00  1.14D+00  2.50D+00  1.51D+00
 E= -669.534746640626     Delta-E=       -0.000000062770 Rises=F Damp=F
 DIIS: error= 1.64D-06 at cycle   5 NSaved=   5.
 NSaved= 5 IEnMin= 5 EnMin= -669.534746640626     IErMin= 5 ErrMin= 1.64D-06
 ErrMax= 1.64D-06  0.00D+00 EMaxC= 1.00D-01 BMatC= 4.78D-10 BMatP= 9.32D-09
 IDIUse=1 WtCom= 1.00D+00 WtEn= 0.00D+00
 Coeff-Com:  0.168D-01-0.146D+00-0.682D-01 0.540D+00 0.658D+00
 Coeff:      0.168D-01-0.146D+00-0.682D-01 0.540D+00 0.658D+00
 Gap=     0.414 Goal=   None    Shift=    0.000
 RMSDP=8.93D-08 MaxDP=2.84D-06 DE=-6.28D-08 OVMax= 1.05D-05

 Cycle  13  Pass 1  IDiag  1:
 RMSU=  6.69D-08    CP:  1.00D+00  1.14D+00  2.52D+00  1.55D+00  1.02D+00
 E= -669.534746641144     Delta-E=       -0.000000000519 Rises=F Damp=F
 DIIS: error= 7.22D-07 at cycle   6 NSaved=   6.
 NSaved= 6 IEnMin= 6 EnMin= -669.534746641144     IErMin= 6 ErrMin= 7.22D-07
 ErrMax= 7.22D-07  0.00D+00 EMaxC= 1.00D-01 BMatC= 3.85D-11 BMatP= 4.78D-10
 IDIUse=1 WtCom= 1.00D+00 WtEn= 0.00D+00
 Coeff-Com: -0.366D-02 0.664D-01 0.184D-01-0.257D+00-0.619D-01 0.124D+01
 Coeff:     -0.366D-02 0.664D-01 0.184D-01-0.257D+00-0.619D-01 0.124D+01
 Gap=     0.414 Goal=   None    Shift=    0.000
 RMSDP=5.61D-08 MaxDP=1.57D-06 DE=-5.19D-10 OVMax= 6.76D-06

 Cycle  14  Pass 1  IDiag  1:
 RMSU=  2.70D-08    CP:  1.00D+00  1.14D+00  2.54D+00  1.56D+00  1.17D+00
                    CP:  1.32D+00
 E= -669.534746641289     Delta-E=       -0.000000000145 Rises=F Damp=F
 DIIS: error= 2.21D-07 at cycle   7 NSaved=   7.
 NSaved= 7 IEnMin= 7 EnMin= -669.534746641289     IErMin= 7 ErrMin= 2.21D-07
 ErrMax= 2.21D-07  0.00D+00 EMaxC= 1.00D-01 BMatC= 7.13D-12 BMatP= 3.85D-11
 IDIUse=1 WtCom= 1.00D+00 WtEn= 0.00D+00
 Coeff-Com: -0.239D-02 0.255D-01 0.114D-01-0.985D-01-0.117D+00 0.247D+00
 Coeff-Com:  0.934D+00
 Coeff:     -0.239D-02 0.255D-01 0.114D-01-0.985D-01-0.117D+00 0.247D+00
 Coeff:      0.934D+00
 Gap=     0.414 Goal=   None    Shift=    0.000
 RMSDP=1.60D-08 MaxDP=6.34D-07 DE=-1.45D-10 OVMax= 1.36D-06

 Cycle  15  Pass 1  IDiag  1:
 RMSU=  8.82D-09    CP:  1.00D+00  1.14D+00  2.54D+00  1.56D+00  1.20D+00
                    CP:  1.46D+00  1.20D+00
 E= -669.534746641284     Delta-E=        0.000000000005 Rises=F Damp=F
 DIIS: error= 6.39D-08 at cycle   8 NSaved=   8.
 NSaved= 8 IEnMin= 7 EnMin= -669.534746641289     IErMin= 8 ErrMin= 6.39D-08
 ErrMax= 6.39D-08  0.00D+00 EMaxC= 1.00D-01 BMatC= 6.38D-13 BMatP= 7.13D-12
 IDIUse=1 WtCom= 1.00D+00 WtEn= 0.00D+00
 Coeff-Com:  0.850D-03-0.132D-01-0.355D-02 0.498D-01 0.946D-02-0.167D+00
 Coeff-Com: -0.176D+00 0.130D+01
 Coeff:      0.850D-03-0.132D-01-0.355D-02 0.498D-01 0.946D-02-0.167D+00
 Coeff:     -0.176D+00 0.130D+01
 Gap=     0.414 Goal=   None    Shift=    0.000
 RMSDP=6.77D-09 MaxDP=3.61D-07 DE= 5.23D-12 OVMax= 8.19D-07

 SCF Done:  E(RHF) =  -669.534746641     A.U. after   15 cycles
            NFock= 15  Conv=0.68D-08     -V/T= 2.0023
 KE= 6.679690216317D+02 PE=-3.397167137105D+03 EE= 1.142471656610D+03
 Leave Link  502 at Wed May  5 23:20:44 2021, MaxMem=   524288000 cpu:              57.2 elap:              29.6
 (Enter /opt/gaussian/g16_legacy/l801.exe)
 ExpMin= 1.61D-01 ExpMax= 5.48D+03 ExpMxC= 8.25D+02 IAcc=3 IRadAn=         5 AccDes= 0.00D+00
 HarFok:  IExCor=  205 AccDes= 0.00D+00 IRadAn=         5 IDoV=-2 UseB2=F ITyADJ=14
 ICtDFT= 12500011 ScaDFX=  1.000000  1.000000  1.000000  1.000000
 Largest valence mixing into a core orbital is  1.97D-04
 Largest core mixing into a valence orbital is  3.99D-05
 Range of M.O.s used for correlation:    16   263
 NBasis=   263 NAE=    57 NBE=    57 NFC=    15 NFV=     0
 NROrb=    248 NOA=    42 NOB=    42 NVA=   206 NVB=   206
 Leave Link  801 at Wed May  5 23:20:45 2021, MaxMem=   524288000 cpu:               1.2 elap:               0.7
 (Enter /opt/gaussian/g16_legacy/l906.exe)
 FulOut=F Deriv=F AODrv=F NAtomX=    34
   MMem=         113  MDisk=          42 MDiskD=          42
  W3Min=     2275476 MinDsk=     2420380 NBas6D=         263
 NBas2D=       35121    NTT=       34716    LW2=     2000000
    MDV=   523933376 MDiskM=       27563 NBas2p=       24755
 Fully direct method using O(OVN) memory.
 IMap=   1   2   3   4   5   6   7   8   9  10  11  12  13  14  15  16  17  18  19  20
 IMap=  21  22  23  24  25  26  27  28  29  30  31  32  33  34  35  36  37  38  39  40
 IMap=  41  42
 JobTyp=1 Pass  1:  I=   1 to  42 NPSUse=  2 ParTrn=T ParDer=T DoDerP=F.
 Spin components of T(2) and E(2):
     alpha-alpha T2 =       0.9513314009D-01 E2=     -0.2722989717D+00
     alpha-beta  T2 =       0.5265202733D+00 E2=     -0.1548573276D+01
     beta-beta   T2 =       0.9513314009D-01 E2=     -0.2722989717D+00
 The integrals were generated   1 times.
 ANorm=    0.1310262017D+01
 E2 =    -0.2093171220D+01 EUMP2 =    -0.67162791786111D+03
 Leave Link  906 at Wed May  5 23:21:51 2021, MaxMem=   524288000 cpu:             131.2 elap:              65.9
 (Enter /opt/gaussian/g16_legacy/l601.exe)
 Copying SCF densities to generalized density rwf, IOpCl= 0 IROHF=0.

 **********************************************************************

            Population analysis using the SCF density.

 **********************************************************************

 Orbital symmetries:
       Occupied  (A) (A) (A) (A) (A) (A) (A) (A) (A) (A) (A) (A)
                 (A) (A) (A) (A) (A) (A) (A) (A) (A) (A) (A) (A)
                 (A) (A) (A) (A) (A) (A) (A) (A) (A) (A) (A) (A)
                 (A) (A) (A) (A) (A) (A) (A) (A) (A) (A) (A) (A)
                 (A) (A) (A) (A) (A) (A) (A) (A) (A)
       Virtual   (A) (A) (A) (A) (A) (A) (A) (A) (A) (A) (A) (A)
                 (A) (A) (A) (A) (A) (A) (A) (A) (A) (A) (A) (A)
                 (A) (A) (A) (A) (A) (A) (A) (A) (A) (A) (A) (A)
                 (A) (A) (A) (A) (A) (A) (A) (A) (A) (A) (A) (A)
                 (A) (A) (A) (A) (A) (A) (A) (A) (A) (A) (A) (A)
                 (A) (A) (A) (A) (A) (A) (A) (A) (A) (A) (A) (A)
                 (A) (A) (A) (A) (A) (A) (A) (A) (A) (A) (A) (A)
                 (A) (A) (A) (A) (A) (A) (A) (A) (A) (A) (A) (A)
                 (A) (A) (A) (A) (A) (A) (A) (A) (A) (A) (A) (A)
                 (A) (A) (A) (A) (A) (A) (A) (A) (A) (A) (A) (A)
                 (A) (A) (A) (A) (A) (A) (A) (A) (A) (A) (A) (A)
                 (A) (A) (A) (A) (A) (A) (A) (A) (A) (A) (A) (A)
                 (A) (A) (A) (A) (A) (A) (A) (A) (A) (A) (A) (A)
                 (A) (A) (A) (A) (A) (A) (A) (A) (A) (A) (A) (A)
                 (A) (A) (A) (A) (A) (A) (A) (A) (A) (A) (A) (A)
                 (A) (A) (A) (A) (A) (A) (A) (A) (A) (A) (A) (A)
                 (A) (A) (A) (A) (A) (A) (A) (A) (A) (A) (A) (A)
                 (A) (A)
 The electronic state is 1-A.
 Alpha  occ. eigenvalues --  -20.60799 -20.60793 -15.85854 -11.31257 -11.27828
 Alpha  occ. eigenvalues --  -11.27822 -11.27577 -11.26850 -11.26836 -11.22289
 Alpha  occ. eigenvalues --  -11.22209 -11.22140 -11.22089 -11.21656 -11.21346
 Alpha  occ. eigenvalues --   -1.59873  -1.39425  -1.19440  -1.09123  -1.08821
 Alpha  occ. eigenvalues --   -1.04858  -1.04104  -0.96550  -0.95651  -0.87562
 Alpha  occ. eigenvalues --   -0.86243  -0.82491  -0.80176  -0.78964  -0.77521
 Alpha  occ. eigenvalues --   -0.72072  -0.71196  -0.70537  -0.65848  -0.65091
 Alpha  occ. eigenvalues --   -0.64805  -0.62228  -0.61476  -0.59917  -0.58172
 Alpha  occ. eigenvalues --   -0.55888  -0.55341  -0.53262  -0.53197  -0.53006
 Alpha  occ. eigenvalues --   -0.52821  -0.50483  -0.48836  -0.48824  -0.48479
 Alpha  occ. eigenvalues --   -0.47218  -0.46471  -0.46413  -0.44822  -0.44395
 Alpha  occ. eigenvalues --   -0.37411  -0.36381
 Alpha virt. eigenvalues --    0.04983   0.11115   0.16366   0.19607   0.22831
 Alpha virt. eigenvalues --    0.23992   0.24884   0.26291   0.27114   0.28535
 Alpha virt. eigenvalues --    0.29118   0.30565   0.31076   0.31483   0.31812
 Alpha virt. eigenvalues --    0.32100   0.33633   0.34013   0.34091   0.34279
 Alpha virt. eigenvalues --    0.35040   0.35793   0.36983   0.38603   0.39650
 Alpha virt. eigenvalues --    0.41513   0.43825   0.44639   0.44897   0.45710
 Alpha virt. eigenvalues --    0.46867   0.47319   0.49344   0.51488   0.56797
 Alpha virt. eigenvalues --    0.67231   0.68587   0.68768   0.69259   0.70301
 Alpha virt. eigenvalues --    0.70634   0.71673   0.73952   0.75385   0.77141
 Alpha virt. eigenvalues --    0.78232   0.78840   0.79218   0.79539   0.80359
 Alpha virt. eigenvalues --    0.80465   0.82080   0.83382   0.84784   0.85771
 Alpha virt. eigenvalues --    0.86291   0.87216   0.89039   0.91135   0.93639
 Alpha virt. eigenvalues --    0.95365   0.95561   0.97297   0.98228   1.00547
 Alpha virt. eigenvalues --    1.01196   1.01908   1.04258   1.05104   1.06708
 Alpha virt. eigenvalues --    1.07052   1.08463   1.08577   1.09704   1.10399
 Alpha virt. eigenvalues --    1.12264   1.15515   1.15595   1.16080   1.16434
 Alpha virt. eigenvalues --    1.16691   1.17545   1.18624   1.19388   1.19886
 Alpha virt. eigenvalues --    1.20446   1.21024   1.21115   1.22082   1.22773
 Alpha virt. eigenvalues --    1.23355   1.23544   1.25212   1.26213   1.27167
 Alpha virt. eigenvalues --    1.28221   1.30661   1.31301   1.33333   1.34203
 Alpha virt. eigenvalues --    1.38164   1.39839   1.42300   1.46645   1.47545
 Alpha virt. eigenvalues --    1.52597   1.53421   1.55562   1.60309   1.65310
 Alpha virt. eigenvalues --    1.66032   1.66664   1.66896   1.67448   1.67733
 Alpha virt. eigenvalues --    1.71372   1.72130   1.72602   1.73223   1.73519
 Alpha virt. eigenvalues --    1.75535   1.79052   1.80594   1.92133   1.97032
 Alpha virt. eigenvalues --    1.99310   1.99893   2.04206   2.04486   2.05107
 Alpha virt. eigenvalues --    2.10046   2.12488   2.12795   2.13139   2.14127
 Alpha virt. eigenvalues --    2.17292   2.21475   2.21791   2.21871   2.24820
 Alpha virt. eigenvalues --    2.24904   2.25289   2.27134   2.27812   2.32045
 Alpha virt. eigenvalues --    2.32952   2.33362   2.35297   2.36584   2.37718
 Alpha virt. eigenvalues --    2.39005   2.42337   2.43099   2.43313   2.44980
 Alpha virt. eigenvalues --    2.45909   2.46807   2.56152   2.56298   2.58069
 Alpha virt. eigenvalues --    2.58598   2.59177   2.59648   2.66347   2.67149
 Alpha virt. eigenvalues --    2.67367   2.70345   2.76403   2.77121   2.79392
 Alpha virt. eigenvalues --    2.81342   2.83502   2.90742   2.91789   2.91884
 Alpha virt. eigenvalues --    2.92474   2.94233   2.98035   2.99818   3.04681
 Alpha virt. eigenvalues --    3.04780   3.06879   3.10507   3.13169   3.17970
 Alpha virt. eigenvalues --    3.23452   3.24510   3.27557   3.43044   3.52868
 Alpha virt. eigenvalues --    3.76925   4.13072   4.28615   4.37843   4.48432
 Alpha virt. eigenvalues --    4.52005   4.52876   4.55688   4.63138   4.71947
 Alpha virt. eigenvalues --    4.72659   4.77151   4.81086   4.87734   4.99792
 Alpha virt. eigenvalues --    5.08896
          Condensed to atoms (all electrons):
               1          2          3          4          5          6
     1  C    5.091683   0.351739  -0.056857   0.392592   0.396667  -0.044251
     2  C    0.351739   5.062557   0.339330  -0.043130  -0.041143   0.398283
     3  C   -0.056857   0.339330   5.108516  -0.002908  -0.002828  -0.040092
     4  H    0.392592  -0.043130  -0.002908   0.582467  -0.032160  -0.003011
     5  H    0.396667  -0.041143  -0.002828  -0.032160   0.561375   0.004579
     6  H   -0.044251   0.398283  -0.040092  -0.003011   0.004579   0.568397
     7  H   -0.043353   0.399683  -0.039338   0.004629  -0.002977  -0.031607
     8  H   -0.003901  -0.039034   0.390542   0.000187   0.002647   0.004266
     9  H   -0.003950  -0.038995   0.388895   0.002343   0.000192  -0.002886
    10  H    0.004370  -0.035712   0.394669  -0.000053  -0.000057  -0.002495
    11  C    0.355175  -0.052096   0.004048  -0.042935  -0.041090  -0.003224
    12  C   -0.052153   0.003979  -0.000085  -0.003293  -0.003265  -0.000066
    13  C    0.004075  -0.000085   0.000001  -0.000054  -0.000052  -0.000000
    14  H   -0.042287  -0.003198  -0.000055  -0.002879   0.004473   0.002464
    15  H   -0.041177  -0.003178  -0.000050   0.004513  -0.002780   0.000228
    16  H   -0.003156  -0.000066  -0.000000   0.002383   0.000239   0.000017
    17  H   -0.003230  -0.000065  -0.000000   0.000259   0.002402  -0.000003
    18  H   -0.000068  -0.000001  -0.000000  -0.000002   0.000013   0.000000
    19  H   -0.000070  -0.000001  -0.000000   0.000014  -0.000001  -0.000002
    20  H   -0.000087   0.000001  -0.000000   0.000001   0.000001   0.000000
    21  C   -0.000013  -0.000023  -0.000054   0.000118   0.000000   0.000238
    22  C    0.000001  -0.000003   0.000019   0.000001  -0.000000   0.000005
    23  C    0.000000  -0.000001   0.000017  -0.000000   0.000000  -0.000001
    24  C    0.000000   0.000001  -0.000026  -0.000001   0.000000  -0.000002
    25  C    0.000001   0.000011  -0.000932   0.000046  -0.000000   0.000004
    26  C   -0.000969   0.000286  -0.001702  -0.000138   0.000011   0.000189
    27  H    0.000006  -0.000002  -0.000002   0.000008   0.000000   0.000033
    28  H    0.000000  -0.000000  -0.000000   0.000000  -0.000000  -0.000000
    29  H   -0.000000  -0.000000   0.000000  -0.000000   0.000000  -0.000000
    30  H    0.000001  -0.000003   0.000034   0.000002  -0.000000   0.000000
    31  H    0.000158  -0.000045  -0.000027   0.001933   0.000006  -0.000002
    32  N   -0.000000   0.000000  -0.000000   0.000000  -0.000000  -0.000000
    33  O   -0.000000   0.000000   0.000000   0.000000   0.000000   0.000000
    34  O   -0.000000   0.000000  -0.000000   0.000000   0.000000   0.000000
               7          8          9         10         11         12
     1  C   -0.043353  -0.003901  -0.003950   0.004370   0.355175  -0.052153
     2  C    0.399683  -0.039034  -0.038995  -0.035712  -0.052096   0.003979
     3  C   -0.039338   0.390542   0.388895   0.394669   0.004048  -0.000085
     4  H    0.004629   0.000187   0.002343  -0.000053  -0.042935  -0.003293
     5  H   -0.002977   0.002647   0.000192  -0.000057  -0.041090  -0.003265
     6  H   -0.031607   0.004266  -0.002886  -0.002495  -0.003224  -0.000066
     7  H    0.560156  -0.002915   0.004128  -0.002467  -0.003217  -0.000061
     8  H   -0.002915   0.548268  -0.028981  -0.027025  -0.000068  -0.000001
     9  H    0.004128  -0.028981   0.543938  -0.026673  -0.000060  -0.000000
    10  H   -0.002467  -0.027025  -0.026673   0.532172  -0.000087   0.000001
    11  C   -0.003217  -0.000068  -0.000060  -0.000087   5.085762   0.351606
    12  C   -0.000061  -0.000001  -0.000000   0.000001   0.351606   5.061391
    13  C   -0.000001  -0.000000  -0.000000  -0.000000  -0.057327   0.340724
    14  H    0.000233  -0.000001   0.000014   0.000001   0.395705  -0.042405
    15  H    0.002352   0.000013  -0.000003   0.000001   0.396706  -0.041346
    16  H   -0.000003   0.000000  -0.000002   0.000000  -0.044324   0.398451
    17  H    0.000017  -0.000002   0.000000   0.000000  -0.043419   0.399515
    18  H   -0.000002   0.000000  -0.000000  -0.000000  -0.003822  -0.038810
    19  H    0.000000  -0.000000   0.000000  -0.000000  -0.003844  -0.039102
    20  H    0.000000  -0.000000  -0.000000   0.000000   0.004392  -0.035759
    21  C    0.000001   0.000002   0.000168  -0.000000  -0.000004   0.000000
    22  C    0.000000  -0.000000  -0.000081  -0.000000  -0.000000   0.000000
    23  C    0.000000  -0.000000  -0.000033  -0.000001   0.000000  -0.000000
    24  C   -0.000000   0.000000   0.000011   0.000000  -0.000000   0.000000
    25  C    0.000000   0.000020   0.002174   0.000018   0.000000   0.000000
    26  C   -0.000002   0.000029   0.002039   0.000017   0.000019  -0.000002
    27  H    0.000000   0.000000   0.000002  -0.000000   0.000001  -0.000000
    28  H    0.000000   0.000000  -0.000000  -0.000000  -0.000000   0.000000
    29  H    0.000000  -0.000000   0.000000  -0.000000   0.000000  -0.000000
    30  H    0.000000   0.000002   0.000161  -0.000001  -0.000000  -0.000000
    31  H    0.000001   0.000002  -0.000289   0.000000  -0.000011   0.000003
    32  N   -0.000000   0.000000  -0.000003   0.000000   0.000000  -0.000000
    33  O    0.000000  -0.000000  -0.000002  -0.000000  -0.000000   0.000000
    34  O    0.000000   0.000000  -0.000000  -0.000000   0.000000  -0.000000
              13         14         15         16         17         18
     1  C    0.004075  -0.042287  -0.041177  -0.003156  -0.003230  -0.000068
     2  C   -0.000085  -0.003198  -0.003178  -0.000066  -0.000065  -0.000001
     3  C    0.000001  -0.000055  -0.000050  -0.000000  -0.000000  -0.000000
     4  H   -0.000054  -0.002879   0.004513   0.002383   0.000259  -0.000002
     5  H   -0.000052   0.004473  -0.002780   0.000239   0.002402   0.000013
     6  H   -0.000000   0.002464   0.000228   0.000017  -0.000003   0.000000
     7  H   -0.000001   0.000233   0.002352  -0.000003   0.000017  -0.000002
     8  H   -0.000000  -0.000001   0.000013   0.000000  -0.000002   0.000000
     9  H   -0.000000   0.000014  -0.000003  -0.000002   0.000000  -0.000000
    10  H   -0.000000   0.000001   0.000001   0.000000   0.000000  -0.000000
    11  C   -0.057327   0.395705   0.396706  -0.044324  -0.043419  -0.003822
    12  C    0.340724  -0.042405  -0.041346   0.398451   0.399515  -0.038810
    13  C    5.096722  -0.002827  -0.002823  -0.040131  -0.039523   0.391693
    14  H   -0.002827   0.571511  -0.031226  -0.002990   0.004584   0.000157
    15  H   -0.002823  -0.031226   0.560969   0.004573  -0.002949   0.002607
    16  H   -0.040131  -0.002990   0.004573   0.570674  -0.031739   0.004239
    17  H   -0.039523   0.004584  -0.002949  -0.031739   0.560717  -0.002872
    18  H    0.391693   0.000157   0.002607   0.004239  -0.002872   0.545816
    19  H    0.391124   0.002640   0.000157  -0.002905   0.004204  -0.029046
    20  H    0.394321  -0.000060  -0.000058  -0.002524  -0.002502  -0.027194
    21  C   -0.000000   0.000000   0.000000   0.000000  -0.000000   0.000000
    22  C   -0.000000   0.000000   0.000000   0.000000  -0.000000   0.000000
    23  C    0.000000   0.000000  -0.000000  -0.000000   0.000000  -0.000000
    24  C   -0.000000  -0.000000   0.000000   0.000000  -0.000000   0.000000
    25  C   -0.000000   0.000000  -0.000000   0.000000  -0.000000   0.000000
    26  C    0.000000   0.000001  -0.000000  -0.000006   0.000000  -0.000000
    27  H    0.000000   0.000011  -0.000000  -0.000000   0.000000  -0.000000
    28  H   -0.000000  -0.000000   0.000000   0.000000  -0.000000   0.000000
    29  H    0.000000   0.000000  -0.000000  -0.000000   0.000000  -0.000000
    30  H    0.000000   0.000000   0.000000  -0.000000   0.000000  -0.000000
    31  H   -0.000000   0.000003   0.000000   0.000030  -0.000000   0.000000
    32  N    0.000000  -0.000000   0.000000  -0.000000   0.000000  -0.000000
    33  O   -0.000000   0.000000  -0.000000   0.000000  -0.000000   0.000000
    34  O    0.000000   0.000000  -0.000000   0.000000   0.000000   0.000000
              19         20         21         22         23         24
     1  C   -0.000070  -0.000087  -0.000013   0.000001   0.000000   0.000000
     2  C   -0.000001   0.000001  -0.000023  -0.000003  -0.000001   0.000001
     3  C   -0.000000  -0.000000  -0.000054   0.000019   0.000017  -0.000026
     4  H    0.000014   0.000001   0.000118   0.000001  -0.000000  -0.000001
     5  H   -0.000001   0.000001   0.000000  -0.000000   0.000000   0.000000
     6  H   -0.000002   0.000000   0.000238   0.000005  -0.000001  -0.000002
     7  H    0.000000   0.000000   0.000001   0.000000   0.000000  -0.000000
     8  H   -0.000000  -0.000000   0.000002  -0.000000  -0.000000   0.000000
     9  H    0.000000  -0.000000   0.000168  -0.000081  -0.000033   0.000011
    10  H   -0.000000   0.000000  -0.000000  -0.000000  -0.000001   0.000000
    11  C   -0.003844   0.004392  -0.000004  -0.000000   0.000000  -0.000000
    12  C   -0.039102  -0.035759   0.000000   0.000000  -0.000000   0.000000
    13  C    0.391124   0.394321  -0.000000  -0.000000   0.000000  -0.000000
    14  H    0.002640  -0.000060   0.000000   0.000000   0.000000  -0.000000
    15  H    0.000157  -0.000058   0.000000   0.000000  -0.000000   0.000000
    16  H   -0.002905  -0.002524   0.000000   0.000000  -0.000000   0.000000
    17  H    0.004204  -0.002502  -0.000000  -0.000000   0.000000  -0.000000
    18  H   -0.029046  -0.027194   0.000000   0.000000  -0.000000   0.000000
    19  H    0.550081  -0.027463  -0.000000   0.000000   0.000000  -0.000000
    20  H   -0.027463   0.534839   0.000000  -0.000000   0.000000  -0.000000
    21  C   -0.000000   0.000000   4.877559   0.541920  -0.045726  -0.028610
    22  C    0.000000  -0.000000   0.541920   4.932506   0.522684  -0.040245
    23  C    0.000000   0.000000  -0.045726   0.522684   4.919274   0.548249
    24  C   -0.000000  -0.000000  -0.028610  -0.040245   0.548249   4.820859
    25  C    0.000000  -0.000000  -0.045389  -0.030206  -0.052947   0.548310
    26  C    0.000000  -0.000000   0.542401  -0.043426  -0.030050  -0.040360
    27  H    0.000000  -0.000000   0.381258  -0.027924   0.002174   0.000216
    28  H   -0.000000   0.000000  -0.027716   0.382602  -0.027329   0.001560
    29  H    0.000000  -0.000000   0.001933  -0.024067   0.368494  -0.019615
    30  H    0.000000   0.000000   0.001913  -0.000060   0.002548  -0.019365
    31  H   -0.000000  -0.000000  -0.027183   0.002296   0.000205   0.001511
    32  N    0.000000   0.000000   0.000012   0.001506  -0.044539   0.244134
    33  O   -0.000000  -0.000000  -0.000003  -0.000028   0.003711  -0.088012
    34  O    0.000000   0.000000  -0.000003   0.000775   0.004076  -0.087968
              25         26         27         28         29         30
     1  C    0.000001  -0.000969   0.000006   0.000000  -0.000000   0.000001
     2  C    0.000011   0.000286  -0.000002  -0.000000  -0.000000  -0.000003
     3  C   -0.000932  -0.001702  -0.000002  -0.000000   0.000000   0.000034
     4  H    0.000046  -0.000138   0.000008   0.000000  -0.000000   0.000002
     5  H   -0.000000   0.000011   0.000000  -0.000000   0.000000  -0.000000
     6  H    0.000004   0.000189   0.000033  -0.000000  -0.000000   0.000000
     7  H    0.000000  -0.000002   0.000000   0.000000   0.000000   0.000000
     8  H    0.000020   0.000029   0.000000   0.000000  -0.000000   0.000002
     9  H    0.002174   0.002039   0.000002  -0.000000   0.000000   0.000161
    10  H    0.000018   0.000017  -0.000000  -0.000000  -0.000000  -0.000001
    11  C    0.000000   0.000019   0.000001  -0.000000   0.000000  -0.000000
    12  C    0.000000  -0.000002  -0.000000   0.000000  -0.000000  -0.000000
    13  C   -0.000000   0.000000   0.000000  -0.000000   0.000000   0.000000
    14  H    0.000000   0.000001   0.000011  -0.000000   0.000000   0.000000
    15  H   -0.000000  -0.000000  -0.000000   0.000000  -0.000000   0.000000
    16  H    0.000000  -0.000006  -0.000000   0.000000  -0.000000  -0.000000
    17  H   -0.000000   0.000000   0.000000  -0.000000   0.000000   0.000000
    18  H    0.000000  -0.000000  -0.000000   0.000000  -0.000000  -0.000000
    19  H    0.000000   0.000000   0.000000  -0.000000   0.000000   0.000000
    20  H   -0.000000  -0.000000  -0.000000   0.000000  -0.000000   0.000000
    21  C   -0.045389   0.542401   0.381258  -0.027716   0.001933   0.001913
    22  C   -0.030206  -0.043426  -0.027924   0.382602  -0.024067  -0.000060
    23  C   -0.052947  -0.030050   0.002174  -0.027329   0.368494   0.002548
    24  C    0.548310  -0.040360   0.000216   0.001560  -0.019615  -0.019365
    25  C    4.922298   0.519630   0.002176   0.000198   0.002573   0.368256
    26  C    0.519630   4.940397  -0.027931   0.002350  -0.000066  -0.024043
    27  H    0.002176  -0.027931   0.446605  -0.001197  -0.000071  -0.000071
    28  H    0.000198   0.002350  -0.001197   0.446947  -0.001109   0.000007
    29  H    0.002573  -0.000066  -0.000071  -0.001109   0.392254  -0.000075
    30  H    0.368256  -0.024043  -0.000071   0.000007  -0.000075   0.390928
    31  H   -0.027109   0.380093  -0.001124  -0.000092   0.000007  -0.000980
    32  N   -0.044546   0.001488   0.000002  -0.000049  -0.005354  -0.005347
    33  O    0.004103   0.000774   0.000000   0.000000   0.000048   0.009084
    34  O    0.003722  -0.000029   0.000000  -0.000001   0.009048   0.000049
              31         32         33         34
     1  C    0.000158  -0.000000  -0.000000  -0.000000
     2  C   -0.000045   0.000000   0.000000   0.000000
     3  C   -0.000027  -0.000000   0.000000  -0.000000
     4  H    0.001933   0.000000   0.000000   0.000000
     5  H    0.000006  -0.000000   0.000000   0.000000
     6  H   -0.000002  -0.000000   0.000000   0.000000
     7  H    0.000001  -0.000000   0.000000   0.000000
     8  H    0.000002   0.000000  -0.000000   0.000000
     9  H   -0.000289  -0.000003  -0.000002  -0.000000
    10  H    0.000000   0.000000  -0.000000  -0.000000
    11  C   -0.000011   0.000000  -0.000000   0.000000
    12  C    0.000003  -0.000000   0.000000  -0.000000
    13  C   -0.000000   0.000000  -0.000000   0.000000
    14  H    0.000003  -0.000000   0.000000   0.000000
    15  H    0.000000   0.000000  -0.000000  -0.000000
    16  H    0.000030  -0.000000   0.000000   0.000000
    17  H   -0.000000   0.000000  -0.000000   0.000000
    18  H    0.000000  -0.000000   0.000000   0.000000
    19  H   -0.000000   0.000000  -0.000000   0.000000
    20  H   -0.000000   0.000000  -0.000000   0.000000
    21  C   -0.027183   0.000012  -0.000003  -0.000003
    22  C    0.002296   0.001506  -0.000028   0.000775
    23  C    0.000205  -0.044539   0.003711   0.004076
    24  C    0.001511   0.244134  -0.088012  -0.087968
    25  C   -0.027109  -0.044546   0.004103   0.003722
    26  C    0.380093   0.001488   0.000774  -0.000029
    27  H   -0.001124   0.000002   0.000000   0.000000
    28  H   -0.000092  -0.000049   0.000000  -0.000001
    29  H    0.000007  -0.005354   0.000048   0.009048
    30  H   -0.000980  -0.005347   0.009084   0.000049
    31  H    0.439799  -0.000049  -0.000001   0.000000
    32  N   -0.000049   5.734770   0.314985   0.314886
    33  O   -0.000001   0.314985   8.302847  -0.087620
    34  O    0.000000   0.314886  -0.087620   8.303333
 Mulliken charges:
               1
     1  C   -0.300945
     2  C   -0.299091
     3  C   -0.481113
     4  H    0.139066
     5  H    0.153748
     6  H    0.148939
     7  H    0.154741
     8  H    0.155950
     9  H    0.157892
    10  H    0.163323
    11  C   -0.297887
    12  C   -0.299323
    13  C   -0.475836
    14  H    0.146130
    15  H    0.153470
    16  H    0.147239
    17  H    0.154606
    18  H    0.157292
    19  H    0.154213
    20  H    0.162093
    21  C   -0.172798
    22  C   -0.218272
    23  C   -0.170807
    24  C    0.159354
    25  C   -0.172412
    26  C   -0.221002
    27  H    0.225829
    28  H    0.223829
    29  H    0.275999
    30  H    0.276960
    31  H    0.230867
    32  N    0.488104
    33  O   -0.459886
    34  O   -0.460269
 Sum of Mulliken charges =  -0.00000
 Mulliken charges with hydrogens summed into heavy atoms:
               1
     1  C   -0.008132
     2  C    0.004588
     3  C   -0.003948
    11  C    0.001713
    12  C    0.002521
    13  C   -0.002238
    21  C    0.053031
    22  C    0.005557
    23  C    0.105193
    24  C    0.159354
    25  C    0.104547
    26  C    0.009865
    32  N    0.488104
    33  O   -0.459886
    34  O   -0.460269
 Electronic spatial extent (au):  <R**2>=           6545.2326
 Charge=             -0.0000 electrons
 Dipole moment (field-independent basis, Debye):
    X=             -4.1429    Y=             -2.9448    Z=              1.2007  Tot=              5.2228
 Quadrupole moment (field-independent basis, Debye-Ang):
   XX=           -118.5114   YY=            -91.8670   ZZ=            -93.2935
   XY=            -10.6134   XZ=              6.4833   YZ=             -1.7204
 Traceless Quadrupole moment (field-independent basis, Debye-Ang):
   XX=            -17.2874   YY=              9.3570   ZZ=              7.9305
   XY=            -10.6134   XZ=              6.4833   YZ=             -1.7204
 Octapole moment (field-independent basis, Debye-Ang**2):
  XXX=           -107.6339  YYY=             -2.8188  ZZZ=             -2.5828  XYY=              4.6064
  XXY=            -34.3654  XXZ=             22.6217  XZZ=             11.7293  YZZ=             -4.3366
  YYZ=             13.3210  XYZ=              0.7501
 Hexadecapole moment (field-independent basis, Debye-Ang**3):
 XXXX=          -8110.0564 YYYY=          -1016.6489 ZZZZ=           -539.4427 XXXY=           -228.8313
 XXXZ=             78.2918 YYYX=              7.0642 YYYZ=            -36.9027 ZZZX=              1.8231
 ZZZY=            -14.4145 XXYY=          -1398.9392 XXZZ=          -1299.0948 YYZZ=           -249.7381
 XXYZ=             17.0019 YYXZ=             31.6060 ZZXY=            -14.8658
 N-N= 9.171917122226D+02 E-N=-3.397167134673D+03  KE= 6.679690216317D+02
 Leave Link  601 at Wed May  5 23:21:52 2021, MaxMem=   524288000 cpu:               0.4 elap:               0.5
 (Enter /opt/gaussian/g16_legacy/l9999.exe)
 1\1\GINC-TRUENO93\SP\RMP2-FC\6-31G(d)\C12H19N1O2\JRAMOS\05-May-2021\0\
 \#p 6-31g* mp2\\Input file generated by CHIRIPA (05-May-2021 14:53:12)
 \\0,1\C,0,-0.666,-0.374,0.\C,0,-1.882,0.553,0.\C,0,-3.207,-0.21,0.\H,0
 ,-0.713,-1.03,-0.88\H,0,-0.713,-1.029,0.881\H,0,-1.832,1.207,-0.88\H,0
 ,-1.832,1.207,0.88\H,0,-3.283,-0.85,0.885\H,0,-3.283,-0.85,-0.885\H,0,
 -4.063,0.472,0.\C,0,0.666,0.374,0.\C,0,1.882,-0.553,0.\C,0,3.207,0.21,
 0.\H,0,0.713,1.029,-0.881\H,0,0.713,1.03,0.88\H,0,1.832,-1.207,-0.88\H
 ,0,1.832,-1.207,0.88\H,0,3.283,0.85,0.885\H,0,3.283,0.85,-0.885\H,0,4.
 063,-0.472,0.\C,0,-2.317915,-0.583841,-4.482335\C,0,-3.396353,-0.26659
 8,-5.314711\C,0,-4.578032,-1.011771,-5.260849\C,0,-4.647165,-2.072337,
 -4.35879\C,0,-3.589976,-2.413131,-3.516472\C,0,-2.417992,-1.654208,-3.
 58745\H,0,-1.403725,0.000368,-4.530825\H,0,-3.32146,0.56412,-6.010659\
 H,0,-5.428174,-0.787982,-5.893774\H,0,-3.694431,-3.246951,-2.832913\H,
 0,-1.582062,-1.902869,-2.939813\N,0,-5.893024,-2.868497,-4.292708\O,0,
 -5.928774,-3.798029,-3.489384\O,0,-6.810187,-2.547919,-5.045488\\Versi
 on=EM64L-G16RevA.03\State=1-A\HF=-669.5347466\MP2=-671.6279179\RMSD=6.
 766e-09\PG=C01 [X(C12H19N1O2)]\\@


 There are more things in heaven and earth, Horatio,
 than are dreamt of in your philosophy.
                   -- Hamlet, Act I, Scene 5
 Job cpu time:       0 days  0 hours  3 minutes 20.2 seconds.
 Elapsed time:       0 days  0 hours  1 minutes 42.3 seconds.
 File lengths (MBytes):  RWF=     43 Int=      0 D2E=      0 Chk=      6 Scr=      1
 Normal termination of Gaussian 16 at Wed May  5 23:21:52 2021.
