 Entering Gaussian System, Link 0=/opt/gaussian/g16_legacy/g16
 Input=gaussian_02338_2_1.com
 Output=gaussian_02338_2_1.log
 Initial command:
 /opt/gaussian/g16_legacy/l1.exe "/scratch-local/jramos/2591962/Gau-5786.inp" -scrdir="/scratch-local/jramos/2591962/"
 Entering Link 1 = /opt/gaussian/g16_legacy/l1.exe PID=      5789.
  
 Copyright (c) 1988,1990,1992,1993,1995,1998,2003,2009,2016,
            Gaussian, Inc.  All Rights Reserved.
  
 This is part of the Gaussian(R) 16 program.  It is based on
 the Gaussian(R) 09 system (copyright 2009, Gaussian, Inc.),
 the Gaussian(R) 03 system (copyright 2003, Gaussian, Inc.),
 the Gaussian(R) 98 system (copyright 1998, Gaussian, Inc.),
 the Gaussian(R) 94 system (copyright 1995, Gaussian, Inc.),
 the Gaussian 92(TM) system (copyright 1992, Gaussian, Inc.),
 the Gaussian 90(TM) system (copyright 1990, Gaussian, Inc.),
 the Gaussian 88(TM) system (copyright 1988, Gaussian, Inc.),
 the Gaussian 86(TM) system (copyright 1986, Carnegie Mellon
 University), and the Gaussian 82(TM) system (copyright 1983,
 Carnegie Mellon University). Gaussian is a federally registered
 trademark of Gaussian, Inc.
  
 This software contains proprietary and confidential information,
 including trade secrets, belonging to Gaussian, Inc.
  
 This software is provided under written license and may be
 used, copied, transmitted, or stored only in accord with that
 written license.
  
 The following legend is applicable only to US Government
 contracts under FAR:
  
                    RESTRICTED RIGHTS LEGEND
  
 Use, reproduction and disclosure by the US Government is
 subject to restrictions as set forth in subparagraphs (a)
 and (c) of the Commercial Computer Software - Restricted
 Rights clause in FAR 52.227-19.
  
 Gaussian, Inc.
 340 Quinnipiac St., Bldg. 40, Wallingford CT 06492
  
  
 ---------------------------------------------------------------
 Warning -- This program may not be used in any manner that
 competes with the business of Gaussian, Inc. or will provide
 assistance to any competitor of Gaussian, Inc.  The licensee
 of this program is prohibited from giving any competitor of
 Gaussian, Inc. access to this program.  By using this program,
 the user acknowledges that Gaussian, Inc. is engaged in the
 business of creating and licensing software in the field of
 computational chemistry and represents and warrants to the
 licensee that it is not a competitor of Gaussian, Inc. and that
 it will not use this program in any manner prohibited above.
 ---------------------------------------------------------------
  

 Cite this work as:
 Gaussian 16, Revision A.03,
 M. J. Frisch, G. W. Trucks, H. B. Schlegel, G. E. Scuseria, 
 M. A. Robb, J. R. Cheeseman, G. Scalmani, V. Barone, 
 G. A. Petersson, H. Nakatsuji, X. Li, M. Caricato, A. V. Marenich, 
 J. Bloino, B. G. Janesko, R. Gomperts, B. Mennucci, H. P. Hratchian, 
 J. V. Ortiz, A. F. Izmaylov, J. L. Sonnenberg, D. Williams-Young, 
 F. Ding, F. Lipparini, F. Egidi, J. Goings, B. Peng, A. Petrone, 
 T. Henderson, D. Ranasinghe, V. G. Zakrzewski, J. Gao, N. Rega, 
 G. Zheng, W. Liang, M. Hada, M. Ehara, K. Toyota, R. Fukuda, 
 J. Hasegawa, M. Ishida, T. Nakajima, Y. Honda, O. Kitao, H. Nakai, 
 T. Vreven, K. Throssell, J. A. Montgomery, Jr., J. E. Peralta, 
 F. Ogliaro, M. J. Bearpark, J. J. Heyd, E. N. Brothers, K. N. Kudin, 
 V. N. Staroverov, T. A. Keith, R. Kobayashi, J. Normand, 
 K. Raghavachari, A. P. Rendell, J. C. Burant, S. S. Iyengar, 
 J. Tomasi, M. Cossi, J. M. Millam, M. Klene, C. Adamo, R. Cammi, 
 J. W. Ochterski, R. L. Martin, K. Morokuma, O. Farkas, 
 J. B. Foresman, and D. J. Fox, Gaussian, Inc., Wallingford CT, 2016.
 
 ******************************************
 Gaussian 16:  EM64L-G16RevA.03 25-Dec-2016
                 6-May-2021 
 ******************************************
 %chk=gaussian_02338_2_1.chk
 %nproc=2
 Will use up to    2 processors via shared memory.
 %mem=4000Mb
 -------------
 #p 6-31g* mp2
 -------------
 1/38=1,172=1/1;
 2/12=2,17=6,18=5,40=1/2;
 3/5=1,6=6,7=1,11=9,25=1,30=1/1,2,3;
 4//1;
 5/5=2,38=5/2;
 8/10=2/1;
 9/16=-3/6;
 6/7=2,8=2,9=2,10=2/1;
 99/5=1,9=1/99;
 Leave Link    1 at Thu May  6 03:00:47 2021, MaxMem=   524288000 cpu:               0.2 elap:               0.2
 (Enter /opt/gaussian/g16_legacy/l101.exe)
 ------------------------------------------------------
 Input file generated by CHIRIPA (05-May-2021 14:55:22)
 ------------------------------------------------------
 Symbolic Z-matrix:
 Charge =  0 Multiplicity = 1
 C                     1.91414   0.        0. 
 C                     1.21414   1.211     0. 
 C                    -0.18386   1.223     0. 
 C                    -0.85286   0.        0. 
 C                    -0.18386  -1.223     0. 
 C                     1.21414  -1.211     0. 
 H                     3.00014   0.        0. 
 H                     1.75514   2.153     0. 
 H                    -0.75086   2.146     0. 
 H                    -0.75086  -2.146     0. 
 H                     1.75514  -2.153     0. 
 N                    -2.33286   0.        0. 
 O                    -2.89886  -1.091     0. 
 O                    -2.89886   1.091     0. 
 C                     1.29498   1.71012   4.77757 
 C                     1.65144   0.22556   4.69388 
 C                     2.49338  -0.24796   5.87909 
 H                     2.22003   2.30034   4.83111 
 H                     0.75031   1.89708   5.71339 
 H                     2.19408   0.04119   3.75784 
 H                     0.72545  -0.36119   4.64034 
 H                     1.95568  -0.09273   6.82005 
 H                     3.43266   0.31195   5.93253 
 H                     2.73678  -1.31201   5.79899 
 C                     0.45347   2.19841   3.59979 
 C                     0.097     3.68297   3.68348 
 C                    -0.74493   4.15649   2.49827 
 H                     0.99814   2.01145   2.66397 
 H                    -0.47158   1.60819   3.54625 
 H                     1.023     4.26972   3.73702 
 H                    -0.44563   3.86734   4.61952 
 H                    -1.68421   3.59658   2.44483 
 H                    -0.20724   4.00126   1.55731 
 H                    -0.98833   5.22054   2.57837 
 
 ITRead=  0  0  0  0  0  0  0  0  0  0  0  0  0  0  0  0  0  0  0  0
 ITRead=  0  0  0  0  0  0  0  0  0  0  0  0  0  0
 MicOpt= -1 -1 -1 -1 -1 -1 -1 -1 -1 -1 -1 -1 -1 -1 -1 -1 -1 -1 -1 -1
 MicOpt= -1 -1 -1 -1 -1 -1 -1 -1 -1 -1 -1 -1 -1 -1
 NAtoms=     34 NQM=       34 NQMF=       0 NMMI=      0 NMMIF=      0
                NMic=       0 NMicF=      0.
                    Isotopes and Nuclear Properties:
 (Nuclear quadrupole moments (NQMom) in fm**2, nuclear magnetic moments (NMagM)
  in nuclear magnetons)

  Atom         1           2           3           4           5           6           7           8           9          10
 IAtWgt=          12          12          12          12          12          12           1           1           1           1
 AtmWgt=  12.0000000  12.0000000  12.0000000  12.0000000  12.0000000  12.0000000   1.0078250   1.0078250   1.0078250   1.0078250
 NucSpn=           0           0           0           0           0           0           1           1           1           1
 AtZEff=  -0.0000000  -0.0000000  -0.0000000  -0.0000000  -0.0000000  -0.0000000  -0.0000000  -0.0000000  -0.0000000  -0.0000000
 NQMom=    0.0000000   0.0000000   0.0000000   0.0000000   0.0000000   0.0000000   0.0000000   0.0000000   0.0000000   0.0000000
 NMagM=    0.0000000   0.0000000   0.0000000   0.0000000   0.0000000   0.0000000   2.7928460   2.7928460   2.7928460   2.7928460
 AtZNuc=   6.0000000   6.0000000   6.0000000   6.0000000   6.0000000   6.0000000   1.0000000   1.0000000   1.0000000   1.0000000

  Atom        11          12          13          14          15          16          17          18          19          20
 IAtWgt=           1          14          16          16          12          12          12           1           1           1
 AtmWgt=   1.0078250  14.0030740  15.9949146  15.9949146  12.0000000  12.0000000  12.0000000   1.0078250   1.0078250   1.0078250
 NucSpn=           1           2           0           0           0           0           0           1           1           1
 AtZEff=  -0.0000000  -0.0000000  -0.0000000  -0.0000000  -0.0000000  -0.0000000  -0.0000000  -0.0000000  -0.0000000  -0.0000000
 NQMom=    0.0000000   2.0440000   0.0000000   0.0000000   0.0000000   0.0000000   0.0000000   0.0000000   0.0000000   0.0000000
 NMagM=    2.7928460   0.4037610   0.0000000   0.0000000   0.0000000   0.0000000   0.0000000   2.7928460   2.7928460   2.7928460
 AtZNuc=   1.0000000   7.0000000   8.0000000   8.0000000   6.0000000   6.0000000   6.0000000   1.0000000   1.0000000   1.0000000

  Atom        21          22          23          24          25          26          27          28          29          30
 IAtWgt=           1           1           1           1          12          12          12           1           1           1
 AtmWgt=   1.0078250   1.0078250   1.0078250   1.0078250  12.0000000  12.0000000  12.0000000   1.0078250   1.0078250   1.0078250
 NucSpn=           1           1           1           1           0           0           0           1           1           1
 AtZEff=  -0.0000000  -0.0000000  -0.0000000  -0.0000000  -0.0000000  -0.0000000  -0.0000000  -0.0000000  -0.0000000  -0.0000000
 NQMom=    0.0000000   0.0000000   0.0000000   0.0000000   0.0000000   0.0000000   0.0000000   0.0000000   0.0000000   0.0000000
 NMagM=    2.7928460   2.7928460   2.7928460   2.7928460   0.0000000   0.0000000   0.0000000   2.7928460   2.7928460   2.7928460
 AtZNuc=   1.0000000   1.0000000   1.0000000   1.0000000   6.0000000   6.0000000   6.0000000   1.0000000   1.0000000   1.0000000

  Atom        31          32          33          34
 IAtWgt=           1           1           1           1
 AtmWgt=   1.0078250   1.0078250   1.0078250   1.0078250
 NucSpn=           1           1           1           1
 AtZEff=  -0.0000000  -0.0000000  -0.0000000  -0.0000000
 NQMom=    0.0000000   0.0000000   0.0000000   0.0000000
 NMagM=    2.7928460   2.7928460   2.7928460   2.7928460
 AtZNuc=   1.0000000   1.0000000   1.0000000   1.0000000
 Leave Link  101 at Thu May  6 03:00:48 2021, MaxMem=   524288000 cpu:               0.4 elap:               0.2
 (Enter /opt/gaussian/g16_legacy/l202.exe)
                          Input orientation:                          
 ---------------------------------------------------------------------
 Center     Atomic      Atomic             Coordinates (Angstroms)
 Number     Number       Type             X           Y           Z
 ---------------------------------------------------------------------
      1          6           0        1.914143    0.000000    0.000000
      2          6           0        1.214143    1.211000    0.000000
      3          6           0       -0.183857    1.223000    0.000000
      4          6           0       -0.852857    0.000000    0.000000
      5          6           0       -0.183857   -1.223000    0.000000
      6          6           0        1.214143   -1.211000    0.000000
      7          1           0        3.000143    0.000000    0.000000
      8          1           0        1.755143    2.153000    0.000000
      9          1           0       -0.750857    2.146000    0.000000
     10          1           0       -0.750857   -2.146000    0.000000
     11          1           0        1.755143   -2.153000    0.000000
     12          7           0       -2.332857    0.000000    0.000000
     13          8           0       -2.898857   -1.091000    0.000000
     14          8           0       -2.898857    1.091000    0.000000
     15          6           0        1.294980    1.710116    4.777567
     16          6           0        1.651444    0.225557    4.693883
     17          6           0        2.493377   -0.247959    5.879094
     18          1           0        2.220027    2.300342    4.831108
     19          1           0        0.750306    1.897083    5.713392
     20          1           0        2.194075    0.041194    3.757839
     21          1           0        0.725445   -0.361192    4.640341
     22          1           0        1.955684   -0.092725    6.820046
     23          1           0        3.432659    0.311946    5.932529
     24          1           0        2.736779   -1.312008    5.798992
     25          6           0        0.453467    2.198414    3.599793
     26          6           0        0.097003    3.682973    3.683477
     27          6           0       -0.744930    4.156489    2.498266
     28          1           0        0.998141    2.011447    2.663968
     29          1           0       -0.471579    1.608188    3.546252
     30          1           0        1.023003    4.269722    3.737019
     31          1           0       -0.445628    3.867336    4.619521
     32          1           0       -1.684212    3.596584    2.444831
     33          1           0       -0.207237    4.001256    1.557314
     34          1           0       -0.988331    5.220538    2.578368
 ---------------------------------------------------------------------
                    Distance matrix (angstroms):
                    1          2          3          4          5
     1  C    0.000000
     2  C    1.398757   0.000000
     3  C    2.428443   1.398052   0.000000
     4  C    2.767000   2.395623   1.394019   0.000000
     5  C    2.428443   2.806913   2.446000   1.394019   0.000000
     6  C    1.398757   2.422000   2.806913   2.395623   1.398052
     7  H    1.086000   2.157850   3.410804   3.853000   3.410804
     8  H    2.158863   1.086299   2.150493   3.381874   3.893212
     9  H    3.421628   2.176109   1.083244   2.148423   3.416380
    10  H    3.421628   3.889817   3.416380   2.148423   1.083244
    11  H    2.158863   3.407224   3.893212   3.381874   2.150493
    12  N    4.247000   3.748030   2.472636   1.480000   2.472636
    13  O    4.935104   4.713382   3.567327   2.318706   2.718207
    14  O    4.935104   4.114750   2.718207   2.318706   3.567327
    15  C    5.112045   4.804248   5.024877   5.510249   5.797868
    16  C    4.706636   4.816105   5.137680   5.324935   5.243967
    17  C    5.912761   6.191022   6.625334   6.769233   6.533149
    18  H    5.359547   5.053521   5.502629   6.170397   6.444548
    19  H    6.131581   5.773102   5.828370   6.229920   6.576506
    20  H    3.768476   4.055868   4.601367   4.838062   4.623213
    21  H    4.803772   4.923756   4.986909   4.914699   4.806486
    22  H    6.820803   6.983023   7.267860   7.376281   7.236587
    23  H    6.131729   6.397266   7.007432   7.325152   7.115486
    24  H    6.002200   6.504790   6.970272   6.945154   6.493562
    25  C    4.463755   3.809478   3.783665   4.415656   5.007072
    26  C    5.516728   4.574566   4.438283   5.294764   6.141291
    27  C    5.530678   4.330728   3.893776   4.850709   5.957771
    28  H    3.461460   2.790000   3.019188   3.816915   4.353791
    29  H    4.566601   3.946558   3.578695   3.912486   4.546901
    30  H    5.743689   4.832973   4.970346   5.976177   6.752171
    31  H    6.470300   5.581302   5.329260   6.038385   6.878955
    32  H    5.644535   4.479807   3.723193   4.427614   5.608623
    33  H    4.789105   3.497296   3.185040   4.341901   5.451479
    34  H    6.505871   5.251216   4.824466   5.824118   6.986726
                    6          7          8          9         10
     6  C    0.000000
     7  H    2.157850   0.000000
     8  H    3.407224   2.487053   0.000000
     9  H    3.889817   4.321495   2.506010   0.000000
    10  H    2.176109   4.321495   4.976087   4.292000   0.000000
    11  H    1.086299   2.487053   4.306000   4.976087   2.506010
    12  N    3.748030   5.333000   4.620298   2.666091   2.666091
    13  O    4.114750   5.999040   5.673028   3.884852   2.393100
    14  O    4.713382   5.999040   4.773632   2.393100   3.884852
    15  C    5.600411   5.353244   4.820067   5.215419   6.471493
    16  C    4.928232   4.889008   5.075266   5.611746   5.781684
    17  C    6.093245   5.906102   6.393226   7.128804   6.977919
    18  H    6.056478   5.407380   4.855660   5.673586   7.206644
    19  H    6.520596   6.426783   5.806724   5.912554   7.158412
    20  H    4.080393   3.843540   4.332867   5.217680   5.251457
    21  H    4.742759   5.180490   5.377193   5.477065   5.186306
    22  H    6.950788   6.900183   7.183072   7.671394   7.619339
    23  H    6.514298   5.956449   6.434162   7.487353   7.664085
    24  H    5.996410   5.951389   6.826287   7.599324   6.818171
    25  C    5.016098   4.927179   3.828176   3.796268   5.769128
    26  C    6.226313   5.963264   4.319519   4.080338   6.947215
    27  C    6.236124   6.127259   4.062717   3.206779   6.779582
    28  H    4.186591   3.892384   2.773052   3.189643   5.238328
    29  H    4.833775   5.216802   4.222679   3.597658   5.171830
    30  H    6.636276   6.008737   4.356817   4.649955   7.633700
    31  H    7.062883   6.940432   5.396510   4.939245   7.589028
    32  H    6.122951   6.391854   4.459854   2.992080   6.310754
    33  H    5.622558   5.359344   3.113232   2.482484   6.364708
    34  H    7.270733   7.057615   4.856379   4.019597   7.808345
                   11         12         13         14         15
    11  H    0.000000
    12  N    4.620298   0.000000
    13  O    4.773632   1.229080   0.000000
    14  O    5.673028   1.229080   2.182000   0.000000
    15  C    6.161214   6.237856   6.946918   6.387231   0.000000
    16  C    5.263157   6.161012   6.668665   6.594450   1.529047
    17  C    6.223979   7.610372   8.021886   8.089051   2.546286
    18  H    6.586955   7.025662   7.813052   7.141785   1.098611
    19  H    7.075007   6.763702   7.408635   6.827079   1.098815
    20  H    4.373614   5.883550   6.429710   6.415715   2.152561
    21  H    5.079726   5.569240   5.933039   6.064420   2.152561
    22  H    7.127270   8.056873   8.430667   8.454632   2.803299
    23  H    6.639648   8.278489   8.789269   8.711482   2.803299
    24  H    5.941312   7.813506   8.089348   8.435825   3.500761
    25  C    5.795487   5.055209   5.917502   5.042118   1.527655
    26  C    7.097606   5.747740   6.733053   5.409390   2.554280
    27  C    7.231967   5.102866   6.198135   4.503105   3.916783
    28  H    5.001239   4.715739   5.648761   4.809422   2.155508
    29  H    5.628564   4.315846   5.074761   4.328402   2.155750
    30  H    7.466773   6.592240   7.621262   6.280969   2.776382
    31  H    7.901127   6.313311   7.207177   5.921685   2.776381
    32  H    7.131906   4.396971   5.424574   3.705471   4.228002
    33  H    6.644624   4.790985   5.966667   4.259065   4.228003
    34  H    8.279112   5.975763   7.080509   5.229835   4.730016
                   16         17         18         19         20
    16  C    0.000000
    17  C    1.528985   0.000000
    18  H    2.155655   2.768905   0.000000
    19  H    2.155330   2.768927   1.761000   0.000000
    20  H    1.097550   2.161692   2.501266   3.058264   0.000000
    21  H    1.097550   2.161692   3.058420   2.500372   1.760000
    22  H    2.171275   1.094807   3.122903   2.576229   3.074390
    23  H    2.171275   1.094806   2.576300   3.123411   2.517275
    24  H    2.182504   1.094468   3.775302   3.775138   2.508384
    25  C    2.554280   3.916783   2.155750   2.155508   2.776381
    26  C    3.923128   5.100546   2.781359   2.781504   4.203070
    27  C    5.100546   6.427736   4.204569   4.204483   5.211519
    28  H    2.781504   4.204483   2.504588   3.061615   2.551217
    29  H    2.781358   4.204569   3.061809   2.504588   3.099347
    30  H    4.203070   5.211519   2.551148   3.099973   4.387743
    31  H    4.203070   5.211519   3.099348   2.551217   4.727567
    32  H    5.248682   6.635279   4.755801   4.415730   5.422721
    33  H    5.248682   6.635279   4.416157   4.755777   5.127446
    34  H    6.032715   7.274719   4.888348   4.888414   6.192291
                   21         22         23         24         25
    21  H    0.000000
    22  H    2.517276   0.000000
    23  H    3.074390   1.770000   0.000000
    24  H    2.508383   1.771810   1.771809   0.000000
    25  C    2.776382   4.228002   4.228002   4.730016   0.000000
    26  C    4.203070   5.248681   5.248682   6.032715   1.529047
    27  C    5.211519   6.635278   6.635279   7.274720   2.546286
    28  H    3.099972   4.755777   4.415730   4.888414   1.098815
    29  H    2.551148   4.416156   4.755800   4.888348   1.098610
    30  H    4.727568   5.422720   5.127445   6.192291   2.152561
    31  H    4.387744   5.127445   5.422721   6.192291   2.152561
    32  H    5.127446   6.782503   7.009654   7.408767   2.803299
    33  H    5.422721   7.009654   6.782504   7.408768   2.803300
    34  H    6.192291   7.408766   7.408767   8.180649   3.500760
                   26         27         28         29         30
    26  C    0.000000
    27  C    1.528985   0.000000
    28  H    2.155330   2.768927   0.000000
    29  H    2.155655   2.768905   1.761000   0.000000
    30  H    1.097551   2.161693   2.500372   3.058420   0.000000
    31  H    1.097550   2.161692   3.058264   2.501266   1.760000
    32  H    2.171275   1.094806   3.123411   2.576301   3.074391
    33  H    2.171275   1.094807   2.576230   3.122903   2.517276
    34  H    2.182504   1.094468   3.775138   3.775302   2.508383
                   31         32         33         34
    31  H    0.000000
    32  H    2.517275   0.000000
    33  H    3.074390   1.770000   0.000000
    34  H    2.508383   1.771810   1.771809   0.000000
 Stoichiometry    C12H19NO2
 Framework group  C1[X(C12H19NO2)]
 Deg. of freedom    96
 Full point group                 C1      NOp   1
 Largest Abelian subgroup         C1      NOp   1
 Largest concise Abelian subgroup C1      NOp   1
                         Standard orientation:                         
 ---------------------------------------------------------------------
 Center     Atomic      Atomic             Coordinates (Angstroms)
 Number     Number       Type             X           Y           Z
 ---------------------------------------------------------------------
      1          6           0        0.878235   -1.801805    1.896967
      2          6           0        0.872426   -0.405979    1.987280
      3          6           0        1.535511    0.370092    1.031988
      4          6           0        2.197309   -0.285616   -0.005007
      5          6           0        2.221261   -1.674487   -0.122292
      6          6           0        1.551447   -2.430496    0.844325
      7          1           0        0.360522   -2.396883    2.643459
      8          1           0        0.350427    0.084983    2.803686
      9          1           0        1.547041    1.452305    1.077814
     10          1           0        2.750327   -2.135320   -0.947604
     11          1           0        1.557639   -3.514344    0.771661
     12          7           0        2.902849    0.525356   -1.022326
     13          8           0        3.478538   -0.076454   -1.926231
     14          8           0        2.866802    1.747450   -0.896534
     15          6           0       -3.286480    0.121029   -0.359326
     16          6           0       -2.970486   -1.317918   -0.768670
     17          6           0       -4.226558   -2.136836   -1.067757
     18          1           0       -3.937546    0.109235    0.525501
     19          1           0       -3.858927    0.605954   -1.162164
     20          1           0       -2.397613   -1.799553    0.034113
     21          1           0       -2.319941   -1.302696   -1.652510
     22          1           0       -4.797708   -1.682097   -1.883601
     23          1           0       -4.875821   -2.181779   -0.187395
     24          1           0       -3.977542   -3.162217   -1.358353
     25          6           0       -2.040950    0.952313   -0.057081
     26          6           0       -2.356944    2.391260    0.352263
     27          6           0       -1.100872    3.210178    0.651349
     28          1           0       -1.468503    0.467389    0.745756
     29          1           0       -1.389884    0.964107   -0.941908
     30          1           0       -3.007490    2.376038    1.236104
     31          1           0       -2.929817    2.872896   -0.450520
     32          1           0       -0.451609    3.255121   -0.229013
     33          1           0       -0.529723    2.755440    1.467194
     34          1           0       -1.349889    4.235558    0.941947
 ---------------------------------------------------------------------
 Rotational constants (GHZ):           0.6010761           0.3128554           0.2612428
 Leave Link  202 at Thu May  6 03:00:48 2021, MaxMem=   524288000 cpu:               0.1 elap:               0.2
 (Enter /opt/gaussian/g16_legacy/l301.exe)
 Standard basis: 6-31G(d) (6D, 7F)
 Ernie: Thresh=  0.10000D-02 Tol=  0.10000D-05 Strict=F.
 There are   263 symmetry adapted cartesian basis functions of A   symmetry.
 There are   263 symmetry adapted basis functions of A   symmetry.
   263 basis functions,   496 primitive gaussians,   263 cartesian basis functions
    57 alpha electrons       57 beta electrons
       nuclear repulsion energy       964.3576585533 Hartrees.
 IExCor=    0 DFT=F Ex=HF Corr=None ExCW=0 ScaHFX=  1.000000
 ScaDFX=  1.000000  1.000000  1.000000  1.000000 ScalE2=  1.000000  1.000000
 IRadAn=      5 IRanWt=     -1 IRanGd=            0 ICorTp=0 IEmpDi=  4
 NAtoms=   34 NActive=   34 NUniq=   34 SFac= 1.00D+00 NAtFMM=   60 NAOKFM=F Big=F
 Integral buffers will be    131072 words long.
 Raffenetti 1 integral format.
 Two-electron integral symmetry is turned on.
 Leave Link  301 at Thu May  6 03:00:49 2021, MaxMem=   524288000 cpu:               0.3 elap:               0.3
 (Enter /opt/gaussian/g16_legacy/l302.exe)
 NPDir=0 NMtPBC=     1 NCelOv=     1 NCel=       1 NClECP=     1 NCelD=      1
         NCelK=      1 NCelE2=     1 NClLst=     1 CellRange=     0.0.
 One-electron integrals computed using PRISM.
 One-electron integral symmetry used in STVInt
 NBasis=   263 RedAO= T EigKep=  4.78D-04  NBF=   263
 NBsUse=   263 1.00D-06 EigRej= -1.00D+00 NBFU=   263
 Leave Link  302 at Thu May  6 03:00:50 2021, MaxMem=   524288000 cpu:               1.0 elap:               0.9
 (Enter /opt/gaussian/g16_legacy/l303.exe)
 DipDrv:  MaxL=1.
 Leave Link  303 at Thu May  6 03:00:50 2021, MaxMem=   524288000 cpu:               0.2 elap:               0.2
 (Enter /opt/gaussian/g16_legacy/l401.exe)
 ExpMin= 1.61D-01 ExpMax= 5.48D+03 ExpMxC= 8.25D+02 IAcc=3 IRadAn=         5 AccDes= 0.00D+00
 Harris functional with IExCor=  205 and IRadAn=       5 diagonalized for initial guess.
 HarFok:  IExCor=  205 AccDes= 0.00D+00 IRadAn=         5 IDoV= 1 UseB2=F ITyADJ=14
 ICtDFT=  3500011 ScaDFX=  1.000000  1.000000  1.000000  1.000000
 FoFCou: FMM=F IPFlag=           0 FMFlag=      100000 FMFlg1=           0
         NFxFlg=           0 DoJE=T BraDBF=F KetDBF=T FulRan=T
         wScrn=  0.000000 ICntrl=       500 IOpCl=  0 I1Cent=   200000004 NGrid=           0
         NMat0=    1 NMatS0=      1 NMatT0=    0 NMatD0=    1 NMtDS0=    0 NMtDT0=    0
 Petite list used in FoFCou.
 Harris En= -670.656373100027    
 JPrj=0 DoOrth=F DoCkMO=F.
 Leave Link  401 at Thu May  6 03:00:59 2021, MaxMem=   524288000 cpu:              16.2 elap:               8.3
 (Enter /opt/gaussian/g16_legacy/l502.exe)
 Integral symmetry usage will be decided dynamically.
 Closed shell SCF:
 Using DIIS extrapolation, IDIIS=  1040.
 NGot=   524288000 LenX=   524144919 LenY=   524075309
 Requested convergence on RMS density matrix=1.00D-08 within 128 cycles.
 Requested convergence on MAX density matrix=1.00D-06.
 Requested convergence on             energy=1.00D-06.
 No special actions if energy rises.
 Fock matrices will be formed incrementally for  20 cycles.
 Integral accuracy reduced to 1.0D-05 until final iterations.

 Cycle   1  Pass 0  IDiag  1:
 FoFJK:  IHMeth= 1 ICntrl=       0 DoSepK=F KAlg= 0 I1Cent=           0 FoldK=F
 IRaf= 830000000 NMat=       1 IRICut=       1 DoRegI=T DoRafI=F ISym2E= 0 IDoP0=0 IntGTp=1.
 FoFCou: FMM=F IPFlag=           0 FMFlag=      100000 FMFlg1=           0
         NFxFlg=           0 DoJE=F BraDBF=F KetDBF=F FulRan=T
         wScrn=  0.000000 ICntrl=         0 IOpCl=  0 I1Cent=           0 NGrid=           0
         NMat0=    1 NMatS0=      1 NMatT0=    0 NMatD0=    1 NMtDS0=    0 NMtDT0=    0
 Symmetry not used in FoFCou.
 E= -668.742347196386    
 DIIS: error= 5.71D-02 at cycle   1 NSaved=   1.
 NSaved= 1 IEnMin= 1 EnMin= -668.742347196386     IErMin= 1 ErrMin= 5.71D-02
 ErrMax= 5.71D-02  0.00D+00 EMaxC= 1.00D-01 BMatC= 1.17D+00 BMatP= 1.17D+00
 IDIUse=3 WtCom= 4.29D-01 WtEn= 5.71D-01
 Coeff-Com:  0.100D+01
 Coeff-En:   0.100D+01
 Coeff:      0.100D+01
 Gap=     0.555 Goal=   None    Shift=    0.000
 GapD=    0.555 DampG=2.000 DampE=0.500 DampFc=1.0000 IDamp=-1.
 RMSDP=4.59D-03 MaxDP=1.18D-01              OVMax= 1.49D-01

 Cycle   2  Pass 0  IDiag  1:
 RMSU=  4.47D-03    CP:  9.48D-01
 E= -669.357470653302     Delta-E=       -0.615123456916 Rises=F Damp=F
 DIIS: error= 2.34D-02 at cycle   2 NSaved=   2.
 NSaved= 2 IEnMin= 2 EnMin= -669.357470653302     IErMin= 2 ErrMin= 2.34D-02
 ErrMax= 2.34D-02  0.00D+00 EMaxC= 1.00D-01 BMatC= 2.17D-01 BMatP= 1.17D+00
 IDIUse=3 WtCom= 7.66D-01 WtEn= 2.34D-01
 Coeff-Com:  0.246D+00 0.754D+00
 Coeff-En:   0.000D+00 0.100D+01
 Coeff:      0.189D+00 0.811D+00
 Gap=     0.565 Goal=   None    Shift=    0.000
 RMSDP=1.79D-03 MaxDP=8.05D-02 DE=-6.15D-01 OVMax= 1.20D-01

 Cycle   3  Pass 0  IDiag  1:
 RMSU=  1.42D-03    CP:  9.57D-01  7.60D-01
 E= -669.508337874078     Delta-E=       -0.150867220776 Rises=F Damp=F
 DIIS: error= 1.20D-02 at cycle   3 NSaved=   3.
 NSaved= 3 IEnMin= 3 EnMin= -669.508337874078     IErMin= 3 ErrMin= 1.20D-02
 ErrMax= 1.20D-02  0.00D+00 EMaxC= 1.00D-01 BMatC= 3.32D-02 BMatP= 2.17D-01
 IDIUse=3 WtCom= 8.80D-01 WtEn= 1.20D-01
 Coeff-Com: -0.951D-02 0.259D+00 0.751D+00
 Coeff-En:   0.000D+00 0.000D+00 0.100D+01
 Coeff:     -0.838D-02 0.228D+00 0.781D+00
 Gap=     0.425 Goal=   None    Shift=    0.000
 RMSDP=5.71D-04 MaxDP=3.04D-02 DE=-1.51D-01 OVMax= 4.77D-02

 Cycle   4  Pass 0  IDiag  1:
 RMSU=  3.96D-04    CP:  9.55D-01  8.33D-01  8.23D-01
 E= -669.531709295863     Delta-E=       -0.023371421785 Rises=F Damp=F
 DIIS: error= 3.62D-03 at cycle   4 NSaved=   4.
 NSaved= 4 IEnMin= 4 EnMin= -669.531709295863     IErMin= 4 ErrMin= 3.62D-03
 ErrMax= 3.62D-03  0.00D+00 EMaxC= 1.00D-01 BMatC= 2.66D-03 BMatP= 3.32D-02
 IDIUse=3 WtCom= 9.64D-01 WtEn= 3.62D-02
 Coeff-Com: -0.132D-01 0.413D-01 0.289D+00 0.683D+00
 Coeff-En:   0.000D+00 0.000D+00 0.000D+00 0.100D+01
 Coeff:     -0.127D-01 0.398D-01 0.279D+00 0.694D+00
 Gap=     0.411 Goal=   None    Shift=    0.000
 RMSDP=1.66D-04 MaxDP=7.74D-03 DE=-2.34D-02 OVMax= 1.36D-02

 Cycle   5  Pass 0  IDiag  1:
 RMSU=  9.72D-05    CP:  9.55D-01  8.36D-01  8.90D-01  7.67D-01
 E= -669.533893097448     Delta-E=       -0.002183801584 Rises=F Damp=F
 DIIS: error= 4.54D-04 at cycle   5 NSaved=   5.
 NSaved= 5 IEnMin= 5 EnMin= -669.533893097448     IErMin= 5 ErrMin= 4.54D-04
 ErrMax= 4.54D-04  0.00D+00 EMaxC= 1.00D-01 BMatC= 5.64D-05 BMatP= 2.66D-03
 IDIUse=3 WtCom= 9.95D-01 WtEn= 4.54D-03
 Coeff-Com:  0.200D-02-0.185D-01-0.757D-01-0.365D-01 0.113D+01
 Coeff-En:   0.000D+00 0.000D+00 0.000D+00 0.000D+00 0.100D+01
 Coeff:      0.199D-02-0.184D-01-0.753D-01-0.364D-01 0.113D+01
 Gap=     0.412 Goal=   None    Shift=    0.000
 RMSDP=5.32D-05 MaxDP=1.33D-03 DE=-2.18D-03 OVMax= 4.67D-03

 Cycle   6  Pass 0  IDiag  1:
 RMSU=  2.49D-05    CP:  9.55D-01  8.39D-01  9.04D-01  8.51D-01  1.26D+00
 E= -669.534001269534     Delta-E=       -0.000108172087 Rises=F Damp=F
 DIIS: error= 1.91D-04 at cycle   6 NSaved=   6.
 NSaved= 6 IEnMin= 6 EnMin= -669.534001269534     IErMin= 6 ErrMin= 1.91D-04
 ErrMax= 1.91D-04  0.00D+00 EMaxC= 1.00D-01 BMatC= 5.99D-06 BMatP= 5.64D-05
 IDIUse=3 WtCom= 9.98D-01 WtEn= 1.91D-03
 Coeff-Com:  0.129D-02-0.646D-02-0.348D-01-0.547D-01 0.148D+00 0.946D+00
 Coeff-En:   0.000D+00 0.000D+00 0.000D+00 0.000D+00 0.000D+00 0.100D+01
 Coeff:      0.129D-02-0.644D-02-0.347D-01-0.546D-01 0.148D+00 0.947D+00
 Gap=     0.412 Goal=   None    Shift=    0.000
 RMSDP=1.75D-05 MaxDP=4.84D-04 DE=-1.08D-04 OVMax= 1.70D-03

 Cycle   7  Pass 0  IDiag  1:
 RMSU=  8.89D-06    CP:  9.55D-01  8.39D-01  9.07D-01  8.63D-01  1.39D+00
                    CP:  1.17D+00
 E= -669.534016454605     Delta-E=       -0.000015185071 Rises=F Damp=F
 DIIS: error= 1.26D-04 at cycle   7 NSaved=   7.
 NSaved= 7 IEnMin= 7 EnMin= -669.534016454605     IErMin= 7 ErrMin= 1.26D-04
 ErrMax= 1.26D-04  0.00D+00 EMaxC= 1.00D-01 BMatC= 1.15D-06 BMatP= 5.99D-06
 IDIUse=3 WtCom= 9.99D-01 WtEn= 1.26D-03
 Coeff-Com: -0.256D-03 0.236D-02 0.959D-02 0.669D-02-0.153D+00 0.755D-02
 Coeff-Com:  0.113D+01
 Coeff-En:   0.000D+00 0.000D+00 0.000D+00 0.000D+00 0.000D+00 0.000D+00
 Coeff-En:   0.100D+01
 Coeff:     -0.256D-03 0.235D-02 0.958D-02 0.668D-02-0.153D+00 0.754D-02
 Coeff:      0.113D+01
 Gap=     0.412 Goal=   None    Shift=    0.000
 RMSDP=8.95D-06 MaxDP=3.55D-04 DE=-1.52D-05 OVMax= 1.36D-03

 Initial convergence to 1.0D-05 achieved.  Increase integral accuracy.
 Cycle   8  Pass 1  IDiag  1:
 E= -669.534022127980     Delta-E=       -0.000005673375 Rises=F Damp=F
 DIIS: error= 6.18D-05 at cycle   1 NSaved=   1.
 NSaved= 1 IEnMin= 1 EnMin= -669.534022127980     IErMin= 1 ErrMin= 6.18D-05
 ErrMax= 6.18D-05  0.00D+00 EMaxC= 1.00D-01 BMatC= 4.02D-07 BMatP= 4.02D-07
 IDIUse=1 WtCom= 1.00D+00 WtEn= 0.00D+00
 Coeff-Com:  0.100D+01
 Coeff:      0.100D+01
 Gap=     0.412 Goal=   None    Shift=    0.000
 RMSDP=8.95D-06 MaxDP=3.55D-04 DE=-5.67D-06 OVMax= 5.35D-04

 Cycle   9  Pass 1  IDiag  1:
 RMSU=  1.15D-05    CP:  1.00D+00
 E= -669.534023163843     Delta-E=       -0.000001035864 Rises=F Damp=F
 DIIS: error= 4.74D-05 at cycle   2 NSaved=   2.
 NSaved= 2 IEnMin= 2 EnMin= -669.534023163843     IErMin= 2 ErrMin= 4.74D-05
 ErrMax= 4.74D-05  0.00D+00 EMaxC= 1.00D-01 BMatC= 1.15D-07 BMatP= 4.02D-07
 IDIUse=1 WtCom= 1.00D+00 WtEn= 0.00D+00
 Coeff-Com: -0.774D-02 0.101D+01
 Coeff:     -0.774D-02 0.101D+01
 Gap=     0.412 Goal=   None    Shift=    0.000
 RMSDP=2.36D-06 MaxDP=8.29D-05 DE=-1.04D-06 OVMax= 3.89D-04

 Cycle  10  Pass 1  IDiag  1:
 RMSU=  2.12D-06    CP:  1.00D+00  1.09D+00
 E= -669.534023578515     Delta-E=       -0.000000414672 Rises=F Damp=F
 DIIS: error= 2.87D-05 at cycle   3 NSaved=   3.
 NSaved= 3 IEnMin= 3 EnMin= -669.534023578515     IErMin= 3 ErrMin= 2.87D-05
 ErrMax= 2.87D-05  0.00D+00 EMaxC= 1.00D-01 BMatC= 5.25D-08 BMatP= 1.15D-07
 IDIUse=1 WtCom= 1.00D+00 WtEn= 0.00D+00
 Coeff-Com: -0.308D+00 0.103D+00 0.120D+01
 Coeff:     -0.308D+00 0.103D+00 0.120D+01
 Gap=     0.413 Goal=   None    Shift=    0.000
 RMSDP=2.34D-06 MaxDP=6.47D-05 DE=-4.15D-07 OVMax= 3.56D-04

 Cycle  11  Pass 1  IDiag  1:
 RMSU=  1.40D-06    CP:  1.00D+00  1.17D+00  1.78D+00
 E= -669.534023840942     Delta-E=       -0.000000262427 Rises=F Damp=F
 DIIS: error= 1.34D-05 at cycle   4 NSaved=   4.
 NSaved= 4 IEnMin= 4 EnMin= -669.534023840942     IErMin= 4 ErrMin= 1.34D-05
 ErrMax= 1.34D-05  0.00D+00 EMaxC= 1.00D-01 BMatC= 9.18D-09 BMatP= 5.25D-08
 IDIUse=1 WtCom= 1.00D+00 WtEn= 0.00D+00
 Coeff-Com:  0.154D-01-0.361D+00-0.752D-01 0.142D+01
 Coeff:      0.154D-01-0.361D+00-0.752D-01 0.142D+01
 Gap=     0.413 Goal=   None    Shift=    0.000
 RMSDP=1.69D-06 MaxDP=4.80D-05 DE=-2.62D-07 OVMax= 2.66D-04

 Cycle  12  Pass 1  IDiag  1:
 RMSU=  2.05D-07    CP:  1.00D+00  1.19D+00  2.50D+00  1.47D+00
 E= -669.534023901869     Delta-E=       -0.000000060927 Rises=F Damp=F
 DIIS: error= 1.30D-06 at cycle   5 NSaved=   5.
 NSaved= 5 IEnMin= 5 EnMin= -669.534023901869     IErMin= 5 ErrMin= 1.30D-06
 ErrMax= 1.30D-06  0.00D+00 EMaxC= 1.00D-01 BMatC= 5.32D-10 BMatP= 9.18D-09
 IDIUse=1 WtCom= 1.00D+00 WtEn= 0.00D+00
 Coeff-Com:  0.166D-01-0.137D+00-0.627D-01 0.524D+00 0.659D+00
 Coeff:      0.166D-01-0.137D+00-0.627D-01 0.524D+00 0.659D+00
 Gap=     0.413 Goal=   None    Shift=    0.000
 RMSDP=9.54D-08 MaxDP=2.92D-06 DE=-6.09D-08 OVMax= 1.12D-05

 Cycle  13  Pass 1  IDiag  1:
 RMSU=  7.12D-08    CP:  1.00D+00  1.19D+00  2.51D+00  1.51D+00  1.00D+00
 E= -669.534023902440     Delta-E=       -0.000000000571 Rises=F Damp=F
 DIIS: error= 8.66D-07 at cycle   6 NSaved=   6.
 NSaved= 6 IEnMin= 6 EnMin= -669.534023902440     IErMin= 6 ErrMin= 8.66D-07
 ErrMax= 8.66D-07  0.00D+00 EMaxC= 1.00D-01 BMatC= 4.10D-11 BMatP= 5.32D-10
 IDIUse=1 WtCom= 1.00D+00 WtEn= 0.00D+00
 Coeff-Com: -0.253D-02 0.581D-01 0.122D-01-0.233D+00-0.578D-01 0.122D+01
 Coeff:     -0.253D-02 0.581D-01 0.122D-01-0.233D+00-0.578D-01 0.122D+01
 Gap=     0.413 Goal=   None    Shift=    0.000
 RMSDP=5.71D-08 MaxDP=1.98D-06 DE=-5.71D-10 OVMax= 6.82D-06

 Cycle  14  Pass 1  IDiag  1:
 RMSU=  2.62D-08    CP:  1.00D+00  1.19D+00  2.53D+00  1.52D+00  1.16D+00
                    CP:  1.32D+00
 E= -669.534023902605     Delta-E=       -0.000000000165 Rises=F Damp=F
 DIIS: error= 1.90D-07 at cycle   7 NSaved=   7.
 NSaved= 7 IEnMin= 7 EnMin= -669.534023902605     IErMin= 7 ErrMin= 1.90D-07
 ErrMax= 1.90D-07  0.00D+00 EMaxC= 1.00D-01 BMatC= 8.23D-12 BMatP= 4.10D-11
 IDIUse=1 WtCom= 1.00D+00 WtEn= 0.00D+00
 Coeff-Com: -0.240D-02 0.259D-01 0.106D-01-0.104D+00-0.120D+00 0.276D+00
 Coeff-Com:  0.913D+00
 Coeff:     -0.240D-02 0.259D-01 0.106D-01-0.104D+00-0.120D+00 0.276D+00
 Coeff:      0.913D+00
 Gap=     0.413 Goal=   None    Shift=    0.000
 RMSDP=1.69D-08 MaxDP=7.05D-07 DE=-1.65D-10 OVMax= 1.44D-06

 Cycle  15  Pass 1  IDiag  1:
 RMSU=  9.32D-09    CP:  1.00D+00  1.19D+00  2.53D+00  1.52D+00  1.19D+00
                    CP:  1.46D+00  1.17D+00
 E= -669.534023902618     Delta-E=       -0.000000000013 Rises=F Damp=F
 DIIS: error= 7.50D-08 at cycle   8 NSaved=   8.
 NSaved= 8 IEnMin= 8 EnMin= -669.534023902618     IErMin= 8 ErrMin= 7.50D-08
 ErrMax= 7.50D-08  0.00D+00 EMaxC= 1.00D-01 BMatC= 7.40D-13 BMatP= 8.23D-12
 IDIUse=1 WtCom= 1.00D+00 WtEn= 0.00D+00
 Coeff-Com:  0.639D-03-0.112D-01-0.230D-02 0.438D-01 0.747D-02-0.157D+00
 Coeff-Com: -0.158D+00 0.128D+01
 Coeff:      0.639D-03-0.112D-01-0.230D-02 0.438D-01 0.747D-02-0.157D+00
 Coeff:     -0.158D+00 0.128D+01
 Gap=     0.413 Goal=   None    Shift=    0.000
 RMSDP=7.02D-09 MaxDP=3.52D-07 DE=-1.30D-11 OVMax= 8.24D-07

 SCF Done:  E(RHF) =  -669.534023903     A.U. after   15 cycles
            NFock= 15  Conv=0.70D-08     -V/T= 2.0023
 KE= 6.679758981682D+02 PE=-3.491715278780D+03 EE= 1.189847698155D+03
 Leave Link  502 at Thu May  6 03:02:01 2021, MaxMem=   524288000 cpu:             118.5 elap:              62.1
 (Enter /opt/gaussian/g16_legacy/l801.exe)
 ExpMin= 1.61D-01 ExpMax= 5.48D+03 ExpMxC= 8.25D+02 IAcc=3 IRadAn=         5 AccDes= 0.00D+00
 HarFok:  IExCor=  205 AccDes= 0.00D+00 IRadAn=         5 IDoV=-2 UseB2=F ITyADJ=14
 ICtDFT= 12500011 ScaDFX=  1.000000  1.000000  1.000000  1.000000
 Largest valence mixing into a core orbital is  1.95D-04
 Largest core mixing into a valence orbital is  3.99D-05
 Range of M.O.s used for correlation:    16   263
 NBasis=   263 NAE=    57 NBE=    57 NFC=    15 NFV=     0
 NROrb=    248 NOA=    42 NOB=    42 NVA=   206 NVB=   206
 Leave Link  801 at Thu May  6 03:02:02 2021, MaxMem=   524288000 cpu:               2.2 elap:               1.4
 (Enter /opt/gaussian/g16_legacy/l906.exe)
 FulOut=F Deriv=F AODrv=F NAtomX=    34
   MMem=         113  MDisk=          42 MDiskD=          42
  W3Min=     2275476 MinDsk=     2420380 NBas6D=         263
 NBas2D=       35121    NTT=       34716    LW2=     2000000
    MDV=   523907256 MDiskM=       27561 NBas2p=       27713
 Fully direct method using O(OVN) memory.
 IMap=   1   2   3   4   5   6   7   8   9  10  11  12  13  14  15  16  17  18  19  20
 IMap=  21  22  23  24  25  26  27  28  29  30  31  32  33  34  35  36  37  38  39  40
 IMap=  41  42
 JobTyp=1 Pass  1:  I=   1 to  42 NPSUse=  2 ParTrn=T ParDer=T DoDerP=F.
 Spin components of T(2) and E(2):
     alpha-alpha T2 =       0.9532483442D-01 E2=     -0.2726884775D+00
     alpha-beta  T2 =       0.5269252116D+00 E2=     -0.1549427703D+01
     beta-beta   T2 =       0.9532483442D-01 E2=     -0.2726884775D+00
 The integrals were generated   1 times.
 ANorm=    0.1310562811D+01
 E2 =    -0.2094804658D+01 EUMP2 =    -0.67162882856024D+03
 Leave Link  906 at Thu May  6 03:03:27 2021, MaxMem=   524288000 cpu:             168.4 elap:              84.4
 (Enter /opt/gaussian/g16_legacy/l601.exe)
 Copying SCF densities to generalized density rwf, IOpCl= 0 IROHF=0.

 **********************************************************************

            Population analysis using the SCF density.

 **********************************************************************

 Orbital symmetries:
       Occupied  (A) (A) (A) (A) (A) (A) (A) (A) (A) (A) (A) (A)
                 (A) (A) (A) (A) (A) (A) (A) (A) (A) (A) (A) (A)
                 (A) (A) (A) (A) (A) (A) (A) (A) (A) (A) (A) (A)
                 (A) (A) (A) (A) (A) (A) (A) (A) (A) (A) (A) (A)
                 (A) (A) (A) (A) (A) (A) (A) (A) (A)
       Virtual   (A) (A) (A) (A) (A) (A) (A) (A) (A) (A) (A) (A)
                 (A) (A) (A) (A) (A) (A) (A) (A) (A) (A) (A) (A)
                 (A) (A) (A) (A) (A) (A) (A) (A) (A) (A) (A) (A)
                 (A) (A) (A) (A) (A) (A) (A) (A) (A) (A) (A) (A)
                 (A) (A) (A) (A) (A) (A) (A) (A) (A) (A) (A) (A)
                 (A) (A) (A) (A) (A) (A) (A) (A) (A) (A) (A) (A)
                 (A) (A) (A) (A) (A) (A) (A) (A) (A) (A) (A) (A)
                 (A) (A) (A) (A) (A) (A) (A) (A) (A) (A) (A) (A)
                 (A) (A) (A) (A) (A) (A) (A) (A) (A) (A) (A) (A)
                 (A) (A) (A) (A) (A) (A) (A) (A) (A) (A) (A) (A)
                 (A) (A) (A) (A) (A) (A) (A) (A) (A) (A) (A) (A)
                 (A) (A) (A) (A) (A) (A) (A) (A) (A) (A) (A) (A)
                 (A) (A) (A) (A) (A) (A) (A) (A) (A) (A) (A) (A)
                 (A) (A) (A) (A) (A) (A) (A) (A) (A) (A) (A) (A)
                 (A) (A) (A) (A) (A) (A) (A) (A) (A) (A) (A) (A)
                 (A) (A) (A) (A) (A) (A) (A) (A) (A) (A) (A) (A)
                 (A) (A) (A) (A) (A) (A) (A) (A) (A) (A) (A) (A)
                 (A) (A)
 The electronic state is 1-A.
 Alpha  occ. eigenvalues --  -20.60799 -20.60794 -15.85847 -11.31194 -11.27776
 Alpha  occ. eigenvalues --  -11.27727 -11.27545 -11.26799 -11.26777 -11.21835
 Alpha  occ. eigenvalues --  -11.21823 -11.21580 -11.21437 -11.21384 -11.21323
 Alpha  occ. eigenvalues --   -1.59871  -1.39424  -1.19387  -1.08793  -1.08638
 Alpha  occ. eigenvalues --   -1.04803  -1.03777  -0.96228  -0.95618  -0.87251
 Alpha  occ. eigenvalues --   -0.86189  -0.82464  -0.79843  -0.78478  -0.77475
 Alpha  occ. eigenvalues --   -0.72067  -0.71192  -0.70500  -0.65322  -0.65030
 Alpha  occ. eigenvalues --   -0.64799  -0.62187  -0.61162  -0.59582  -0.57843
 Alpha  occ. eigenvalues --   -0.55548  -0.55291  -0.53271  -0.52978  -0.52878
 Alpha  occ. eigenvalues --   -0.52507  -0.50179  -0.48827  -0.48817  -0.48150
 Alpha  occ. eigenvalues --   -0.46876  -0.45966  -0.45927  -0.44824  -0.44000
 Alpha  occ. eigenvalues --   -0.37356  -0.36240
 Alpha virt. eigenvalues --    0.05013   0.11149   0.16398   0.20281   0.22887
 Alpha virt. eigenvalues --    0.23867   0.25823   0.26537   0.27215   0.28290
 Alpha virt. eigenvalues --    0.29001   0.30420   0.31487   0.31610   0.32211
 Alpha virt. eigenvalues --    0.32639   0.34006   0.34111   0.34360   0.34919
 Alpha virt. eigenvalues --    0.35137   0.36187   0.37068   0.38171   0.39544
 Alpha virt. eigenvalues --    0.40417   0.43627   0.44480   0.45190   0.45660
 Alpha virt. eigenvalues --    0.47025   0.47869   0.49340   0.51146   0.57391
 Alpha virt. eigenvalues --    0.65796   0.67353   0.68764   0.69339   0.70789
 Alpha virt. eigenvalues --    0.71160   0.74201   0.74876   0.76154   0.77404
 Alpha virt. eigenvalues --    0.78057   0.78386   0.78820   0.79687   0.80282
 Alpha virt. eigenvalues --    0.80704   0.82165   0.84002   0.85775   0.86377
 Alpha virt. eigenvalues --    0.86548   0.86895   0.90084   0.93206   0.93647
 Alpha virt. eigenvalues --    0.95924   0.96296   0.97745   0.98923   1.01148
 Alpha virt. eigenvalues --    1.01483   1.01925   1.04411   1.05826   1.06952
 Alpha virt. eigenvalues --    1.07574   1.08533   1.08640   1.10631   1.10905
 Alpha virt. eigenvalues --    1.13340   1.14815   1.15090   1.15780   1.16547
 Alpha virt. eigenvalues --    1.16861   1.18392   1.18897   1.19452   1.20294
 Alpha virt. eigenvalues --    1.20755   1.21259   1.21336   1.22752   1.23251
 Alpha virt. eigenvalues --    1.23743   1.24471   1.25036   1.26445   1.27696
 Alpha virt. eigenvalues --    1.29091   1.29478   1.31518   1.32750   1.35037
 Alpha virt. eigenvalues --    1.36364   1.39928   1.46026   1.46813   1.48970
 Alpha virt. eigenvalues --    1.52823   1.53631   1.55754   1.60507   1.65105
 Alpha virt. eigenvalues --    1.65799   1.67030   1.67087   1.67392   1.68678
 Alpha virt. eigenvalues --    1.71251   1.72567   1.72897   1.73293   1.74208
 Alpha virt. eigenvalues --    1.75584   1.79756   1.81282   1.92554   1.97088
 Alpha virt. eigenvalues --    1.99399   1.99906   2.04560   2.04860   2.05430
 Alpha virt. eigenvalues --    2.10040   2.12390   2.12618   2.13927   2.14812
 Alpha virt. eigenvalues --    2.17652   2.21608   2.21784   2.22431   2.24660
 Alpha virt. eigenvalues --    2.25543   2.25912   2.27234   2.28554   2.33090
 Alpha virt. eigenvalues --    2.33120   2.33705   2.35968   2.37087   2.37922
 Alpha virt. eigenvalues --    2.39635   2.42855   2.43277   2.43598   2.45399
 Alpha virt. eigenvalues --    2.46415   2.46964   2.56592   2.56977   2.58220
 Alpha virt. eigenvalues --    2.58814   2.59397   2.59968   2.67133   2.67482
 Alpha virt. eigenvalues --    2.67512   2.70702   2.76856   2.77492   2.79855
 Alpha virt. eigenvalues --    2.81784   2.83528   2.91282   2.91923   2.92001
 Alpha virt. eigenvalues --    2.92612   2.95311   2.98674   3.00007   3.04706
 Alpha virt. eigenvalues --    3.04968   3.07159   3.10634   3.13684   3.18743
 Alpha virt. eigenvalues --    3.23526   3.24655   3.27582   3.43130   3.52993
 Alpha virt. eigenvalues --    3.77020   4.13156   4.28683   4.37934   4.48557
 Alpha virt. eigenvalues --    4.52447   4.53395   4.57339   4.62823   4.71480
 Alpha virt. eigenvalues --    4.73588   4.77308   4.81273   4.88251   5.00690
 Alpha virt. eigenvalues --    5.09471
          Condensed to atoms (all electrons):
               1          2          3          4          5          6
     1  C    4.876528   0.541588  -0.045682  -0.028629  -0.045832   0.541800
     2  C    0.541588   4.939661   0.520188  -0.039364  -0.029919  -0.043785
     3  C   -0.045682   0.520188   4.922726   0.548763  -0.052834  -0.030206
     4  C   -0.028629  -0.039364   0.548763   4.820750   0.547255  -0.039992
     5  C   -0.045832  -0.029919  -0.052834   0.547255   4.919277   0.523200
     6  C    0.541800  -0.043785  -0.030206  -0.039992   0.523200   4.931953
     7  H    0.381387  -0.028246   0.002192   0.000212   0.002180  -0.027933
     8  H   -0.027722   0.383431  -0.028048   0.001548   0.000188   0.002345
     9  H    0.001904  -0.023915   0.366620  -0.019367   0.002527  -0.000070
    10  H    0.001930  -0.000061   0.002584  -0.019658   0.368506  -0.024081
    11  H   -0.027688   0.002337   0.000202   0.001542  -0.027302   0.382585
    12  N    0.000007   0.001497  -0.044352   0.243950  -0.044560   0.001518
    13  O   -0.000004  -0.000028   0.003682  -0.087894   0.004031   0.000774
    14  O   -0.000004   0.000767   0.003312  -0.087240   0.003732  -0.000028
    15  C    0.000000   0.000073   0.000031   0.000005  -0.000002  -0.000003
    16  C   -0.000153  -0.000053   0.000013   0.000009  -0.000000  -0.000063
    17  C    0.000002   0.000000  -0.000000  -0.000000   0.000000   0.000001
    18  H   -0.000000  -0.000001   0.000000  -0.000000   0.000000   0.000000
    19  H   -0.000000  -0.000001  -0.000001  -0.000000   0.000000   0.000000
    20  H    0.000836   0.000163  -0.000022  -0.000032   0.000005   0.000284
    21  H   -0.000004  -0.000005  -0.000001   0.000004   0.000012   0.000010
    22  H   -0.000000  -0.000000   0.000000   0.000000  -0.000000  -0.000000
    23  H   -0.000000  -0.000000   0.000000   0.000000   0.000000  -0.000000
    24  H   -0.000000  -0.000000   0.000000  -0.000000   0.000000   0.000000
    25  C   -0.000268  -0.002190  -0.001030   0.000050   0.000052   0.000017
    26  C    0.000002   0.000083   0.000034  -0.000002  -0.000000   0.000001
    27  C    0.000004  -0.000074  -0.000950   0.000022   0.000001  -0.000000
    28  H    0.000486   0.001261  -0.000216  -0.000266  -0.000057  -0.000019
    29  H   -0.000016  -0.000037   0.000424   0.000196   0.000011  -0.000009
    30  H    0.000000  -0.000001  -0.000004  -0.000000   0.000000   0.000000
    31  H   -0.000000  -0.000002  -0.000006   0.000000   0.000000   0.000000
    32  H    0.000001   0.000003  -0.000152  -0.000032   0.000000  -0.000000
    33  H    0.000008   0.000051  -0.000577   0.000064   0.000000  -0.000001
    34  H   -0.000000   0.000002   0.000027   0.000000  -0.000000   0.000000
               7          8          9         10         11         12
     1  C    0.381387  -0.027722   0.001904   0.001930  -0.027688   0.000007
     2  C   -0.028246   0.383431  -0.023915  -0.000061   0.002337   0.001497
     3  C    0.002192  -0.028048   0.366620   0.002584   0.000202  -0.044352
     4  C    0.000212   0.001548  -0.019367  -0.019658   0.001542   0.243950
     5  C    0.002180   0.000188   0.002527   0.368506  -0.027302  -0.044560
     6  C   -0.027933   0.002345  -0.000070  -0.024081   0.382585   0.001518
     7  H    0.447010  -0.001192  -0.000070  -0.000071  -0.001200   0.000002
     8  H   -0.001192   0.446982  -0.001226   0.000007  -0.000093  -0.000049
     9  H   -0.000070  -0.001226   0.386977  -0.000075   0.000007  -0.005357
    10  H   -0.000071   0.000007  -0.000075   0.392724  -0.001110  -0.005370
    11  H   -0.001200  -0.000093   0.000007  -0.001110   0.447110  -0.000049
    12  N    0.000002  -0.000049  -0.005357  -0.005370  -0.000049   5.736226
    13  O    0.000000   0.000000   0.000049   0.009038  -0.000001   0.314823
    14  O    0.000000  -0.000001   0.009249   0.000047   0.000000   0.313713
    15  C   -0.000000  -0.000002  -0.000002  -0.000000   0.000000   0.000000
    16  C   -0.000002  -0.000000   0.000000   0.000000  -0.000000  -0.000000
    17  C   -0.000000  -0.000000  -0.000000  -0.000000   0.000000   0.000000
    18  H   -0.000000   0.000000   0.000000   0.000000  -0.000000  -0.000000
    19  H    0.000000   0.000000   0.000000   0.000000  -0.000000  -0.000000
    20  H    0.000025  -0.000000   0.000000  -0.000000   0.000001  -0.000000
    21  H   -0.000000   0.000000   0.000000   0.000000  -0.000000  -0.000000
    22  H    0.000000  -0.000000   0.000000   0.000000  -0.000000  -0.000000
    23  H   -0.000000   0.000000  -0.000000   0.000000  -0.000000  -0.000000
    24  H   -0.000000  -0.000000   0.000000   0.000000   0.000000  -0.000000
    25  C   -0.000002   0.000007   0.000019   0.000000   0.000000  -0.000009
    26  C    0.000000  -0.000002  -0.000102  -0.000000   0.000000   0.000000
    27  C    0.000000   0.000040   0.000590   0.000000  -0.000000  -0.000000
    28  H    0.000008  -0.000055  -0.000039   0.000000  -0.000000  -0.000003
    29  H    0.000000  -0.000002   0.000045   0.000000  -0.000000  -0.000001
    30  H    0.000000  -0.000001   0.000005   0.000000  -0.000000  -0.000000
    31  H    0.000000   0.000000   0.000002   0.000000  -0.000000  -0.000000
    32  H    0.000000  -0.000006   0.000435   0.000000  -0.000000   0.000002
    33  H   -0.000000   0.000336   0.000857   0.000000  -0.000000  -0.000002
    34  H   -0.000000  -0.000001  -0.000007  -0.000000   0.000000   0.000000
              13         14         15         16         17         18
     1  C   -0.000004  -0.000004   0.000000  -0.000153   0.000002  -0.000000
     2  C   -0.000028   0.000767   0.000073  -0.000053   0.000000  -0.000001
     3  C    0.003682   0.003312   0.000031   0.000013  -0.000000   0.000000
     4  C   -0.087894  -0.087240   0.000005   0.000009  -0.000000  -0.000000
     5  C    0.004031   0.003732  -0.000002  -0.000000   0.000000   0.000000
     6  C    0.000774  -0.000028  -0.000003  -0.000063   0.000001   0.000000
     7  H    0.000000   0.000000  -0.000000  -0.000002  -0.000000  -0.000000
     8  H    0.000000  -0.000001  -0.000002  -0.000000  -0.000000   0.000000
     9  H    0.000049   0.009249  -0.000002   0.000000  -0.000000   0.000000
    10  H    0.009038   0.000047  -0.000000   0.000000  -0.000000   0.000000
    11  H   -0.000001   0.000000   0.000000  -0.000000   0.000000  -0.000000
    12  N    0.314823   0.313713   0.000000  -0.000000   0.000000  -0.000000
    13  O    8.303371  -0.087489  -0.000000  -0.000000   0.000000   0.000000
    14  O   -0.087489   8.304349  -0.000000   0.000000   0.000000   0.000000
    15  C   -0.000000  -0.000000   5.084236   0.352297  -0.057335   0.395679
    16  C   -0.000000   0.000000   0.352297   5.063079   0.339757  -0.042218
    17  C    0.000000   0.000000  -0.057335   0.339757   5.098655  -0.002879
    18  H    0.000000   0.000000   0.395679  -0.042218  -0.002879   0.570466
    19  H    0.000000  -0.000000   0.396407  -0.041869  -0.002913  -0.031425
    20  H    0.000000   0.000000  -0.043694   0.397157  -0.040189  -0.002953
    21  H   -0.000000  -0.000000  -0.043251   0.399557  -0.039766   0.004566
    22  H   -0.000000  -0.000000  -0.003768  -0.038627   0.391538   0.000160
    23  H   -0.000000   0.000000  -0.003813  -0.039000   0.390974   0.002639
    24  H   -0.000000  -0.000000   0.004414  -0.035982   0.393981  -0.000060
    25  C    0.000000  -0.000004   0.353737  -0.051884   0.004079  -0.041798
    26  C    0.000000   0.000001  -0.051502   0.003999  -0.000085  -0.003287
    27  C   -0.000000  -0.000062   0.004084  -0.000085   0.000001  -0.000053
    28  H    0.000000   0.000000  -0.041605  -0.003280  -0.000045  -0.002839
    29  H   -0.000001   0.000009  -0.041165  -0.003267  -0.000051   0.004446
    30  H    0.000000  -0.000000  -0.003290  -0.000067  -0.000000   0.002432
    31  H    0.000000  -0.000000  -0.003379  -0.000068  -0.000001   0.000246
    32  H   -0.000000   0.000366  -0.000070  -0.000000  -0.000000  -0.000001
    33  H   -0.000000  -0.000029  -0.000070  -0.000000  -0.000000   0.000013
    34  H   -0.000000   0.000000  -0.000083   0.000001  -0.000000   0.000001
              19         20         21         22         23         24
     1  C   -0.000000   0.000836  -0.000004  -0.000000  -0.000000  -0.000000
     2  C   -0.000001   0.000163  -0.000005  -0.000000  -0.000000  -0.000000
     3  C   -0.000001  -0.000022  -0.000001   0.000000   0.000000   0.000000
     4  C   -0.000000  -0.000032   0.000004   0.000000   0.000000  -0.000000
     5  C    0.000000   0.000005   0.000012  -0.000000   0.000000   0.000000
     6  C    0.000000   0.000284   0.000010  -0.000000  -0.000000   0.000000
     7  H    0.000000   0.000025  -0.000000   0.000000  -0.000000  -0.000000
     8  H    0.000000  -0.000000   0.000000  -0.000000   0.000000  -0.000000
     9  H    0.000000   0.000000   0.000000   0.000000  -0.000000   0.000000
    10  H    0.000000  -0.000000   0.000000   0.000000   0.000000   0.000000
    11  H   -0.000000   0.000001  -0.000000  -0.000000  -0.000000   0.000000
    12  N   -0.000000  -0.000000  -0.000000  -0.000000  -0.000000  -0.000000
    13  O    0.000000   0.000000  -0.000000  -0.000000  -0.000000  -0.000000
    14  O   -0.000000   0.000000  -0.000000  -0.000000   0.000000  -0.000000
    15  C    0.396407  -0.043694  -0.043251  -0.003768  -0.003813   0.004414
    16  C   -0.041869   0.397157   0.399557  -0.038627  -0.039000  -0.035982
    17  C   -0.002913  -0.040189  -0.039766   0.391538   0.390974   0.393981
    18  H   -0.031425  -0.002953   0.004566   0.000160   0.002639  -0.000060
    19  H    0.564854   0.004549  -0.002945   0.002623   0.000161  -0.000058
    20  H    0.004549   0.569832  -0.031611   0.004220  -0.002911  -0.002504
    21  H   -0.002945  -0.031611   0.560808  -0.002868   0.004214  -0.002511
    22  H    0.002623   0.004220  -0.002868   0.546099  -0.029037  -0.027353
    23  H    0.000161  -0.002911   0.004214  -0.029037   0.550753  -0.027742
    24  H   -0.000058  -0.002504  -0.002511  -0.027353  -0.027742   0.538699
    25  C   -0.041331  -0.003246  -0.003155  -0.000071  -0.000071  -0.000087
    26  C   -0.003384  -0.000058  -0.000064  -0.000001  -0.000001   0.000001
    27  C   -0.000054  -0.000000  -0.000001  -0.000000  -0.000000  -0.000000
    28  H    0.004408   0.002288   0.000233  -0.000002   0.000014   0.000001
    29  H   -0.002785   0.000235   0.002378   0.000013  -0.000001   0.000001
    30  H    0.000247   0.000018  -0.000003   0.000000  -0.000002   0.000000
    31  H    0.002469  -0.000003   0.000017  -0.000002   0.000000   0.000000
    32  H    0.000013   0.000000  -0.000002   0.000000  -0.000000  -0.000000
    33  H   -0.000002  -0.000002   0.000000  -0.000000   0.000000  -0.000000
    34  H    0.000001   0.000000   0.000000  -0.000000  -0.000000   0.000000
              25         26         27         28         29         30
     1  C   -0.000268   0.000002   0.000004   0.000486  -0.000016   0.000000
     2  C   -0.002190   0.000083  -0.000074   0.001261  -0.000037  -0.000001
     3  C   -0.001030   0.000034  -0.000950  -0.000216   0.000424  -0.000004
     4  C    0.000050  -0.000002   0.000022  -0.000266   0.000196  -0.000000
     5  C    0.000052  -0.000000   0.000001  -0.000057   0.000011   0.000000
     6  C    0.000017   0.000001  -0.000000  -0.000019  -0.000009   0.000000
     7  H   -0.000002   0.000000   0.000000   0.000008   0.000000   0.000000
     8  H    0.000007  -0.000002   0.000040  -0.000055  -0.000002  -0.000001
     9  H    0.000019  -0.000102   0.000590  -0.000039   0.000045   0.000005
    10  H    0.000000  -0.000000   0.000000   0.000000   0.000000   0.000000
    11  H    0.000000   0.000000  -0.000000  -0.000000  -0.000000  -0.000000
    12  N   -0.000009   0.000000  -0.000000  -0.000003  -0.000001  -0.000000
    13  O    0.000000   0.000000  -0.000000   0.000000  -0.000001   0.000000
    14  O   -0.000004   0.000001  -0.000062   0.000000   0.000009  -0.000000
    15  C    0.353737  -0.051502   0.004084  -0.041605  -0.041165  -0.003290
    16  C   -0.051884   0.003999  -0.000085  -0.003280  -0.003267  -0.000067
    17  C    0.004079  -0.000085   0.000001  -0.000045  -0.000051  -0.000000
    18  H   -0.041798  -0.003287  -0.000053  -0.002839   0.004446   0.002432
    19  H   -0.041331  -0.003384  -0.000054   0.004408  -0.002785   0.000247
    20  H   -0.003246  -0.000058  -0.000000   0.002288   0.000235   0.000018
    21  H   -0.003155  -0.000064  -0.000001   0.000233   0.002378  -0.000003
    22  H   -0.000071  -0.000001  -0.000000  -0.000002   0.000013   0.000000
    23  H   -0.000071  -0.000001  -0.000000   0.000014  -0.000001  -0.000002
    24  H   -0.000087   0.000001  -0.000000   0.000001   0.000001   0.000000
    25  C    5.096135   0.350380  -0.057291   0.395541   0.397402  -0.043928
    26  C    0.350380   5.063771   0.339049  -0.042378  -0.041527   0.398431
    27  C   -0.057291   0.339049   5.103638  -0.002951  -0.002790  -0.040174
    28  H    0.395541  -0.042378  -0.002951   0.565107  -0.032050  -0.003025
    29  H    0.397402  -0.041527  -0.002790  -0.032050   0.561719   0.004568
    30  H   -0.043928   0.398431  -0.040174  -0.003025   0.004568   0.568669
    31  H   -0.042951   0.399326  -0.039554   0.004498  -0.002969  -0.031405
    32  H   -0.003671  -0.037890   0.392923   0.000144   0.002576   0.004143
    33  H   -0.003849  -0.039655   0.388694   0.002246   0.000129  -0.003089
    34  H    0.004344  -0.035631   0.394106  -0.000047  -0.000054  -0.002519
              31         32         33         34
     1  C   -0.000000   0.000001   0.000008  -0.000000
     2  C   -0.000002   0.000003   0.000051   0.000002
     3  C   -0.000006  -0.000152  -0.000577   0.000027
     4  C    0.000000  -0.000032   0.000064   0.000000
     5  C    0.000000   0.000000   0.000000  -0.000000
     6  C    0.000000  -0.000000  -0.000001   0.000000
     7  H    0.000000   0.000000  -0.000000  -0.000000
     8  H    0.000000  -0.000006   0.000336  -0.000001
     9  H    0.000002   0.000435   0.000857  -0.000007
    10  H    0.000000   0.000000   0.000000  -0.000000
    11  H   -0.000000  -0.000000  -0.000000   0.000000
    12  N   -0.000000   0.000002  -0.000002   0.000000
    13  O    0.000000  -0.000000  -0.000000  -0.000000
    14  O   -0.000000   0.000366  -0.000029   0.000000
    15  C   -0.003379  -0.000070  -0.000070  -0.000083
    16  C   -0.000068  -0.000000  -0.000000   0.000001
    17  C   -0.000001  -0.000000  -0.000000  -0.000000
    18  H    0.000246  -0.000001   0.000013   0.000001
    19  H    0.002469   0.000013  -0.000002   0.000001
    20  H   -0.000003   0.000000  -0.000002   0.000000
    21  H    0.000017  -0.000002   0.000000   0.000000
    22  H   -0.000002   0.000000  -0.000000  -0.000000
    23  H    0.000000  -0.000000   0.000000  -0.000000
    24  H    0.000000  -0.000000  -0.000000   0.000000
    25  C   -0.042951  -0.003671  -0.003849   0.004344
    26  C    0.399326  -0.037890  -0.039655  -0.035631
    27  C   -0.039554   0.392923   0.388694   0.394106
    28  H    0.004498   0.000144   0.002246  -0.000047
    29  H   -0.002969   0.002576   0.000129  -0.000054
    30  H   -0.031405   0.004143  -0.003089  -0.002519
    31  H    0.560108  -0.002894   0.004267  -0.002581
    32  H   -0.002894   0.532324  -0.030701  -0.026196
    33  H    0.004267  -0.030701   0.569073  -0.027889
    34  H   -0.002581  -0.026196  -0.027889   0.533099
 Mulliken charges:
               1
     1  C   -0.170480
     2  C   -0.223421
     3  C   -0.166717
     4  C    0.158107
     5  C   -0.170472
     6  C   -0.218297
     7  H    0.225699
     8  H    0.223513
     9  H    0.280943
    10  H    0.275590
    11  H    0.223659
    12  N    0.488014
    13  O   -0.460351
    14  O   -0.460690
    15  C   -0.297929
    16  C   -0.299247
    17  C   -0.475721
    18  H    0.146865
    19  H    0.151037
    20  H    0.147615
    21  H    0.154387
    22  H    0.157075
    23  H    0.153823
    24  H    0.159201
    25  C   -0.304924
    26  C   -0.299507
    27  C   -0.479112
    28  H    0.152645
    29  H    0.152576
    30  H    0.148996
    31  H    0.154881
    32  H    0.168687
    33  H    0.140126
    34  H    0.163428
 Sum of Mulliken charges =  -0.00000
 Mulliken charges with hydrogens summed into heavy atoms:
               1
     1  C    0.055219
     2  C    0.000092
     3  C    0.114226
     4  C    0.158107
     5  C    0.105118
     6  C    0.005362
    12  N    0.488014
    13  O   -0.460351
    14  O   -0.460690
    15  C   -0.000026
    16  C    0.002756
    17  C   -0.005623
    25  C    0.000297
    26  C    0.004370
    27  C   -0.006871
 Electronic spatial extent (au):  <R**2>=           4628.0152
 Charge=             -0.0000 electrons
 Dipole moment (field-independent basis, Debye):
    X=             -2.4227    Y=             -2.8087    Z=              3.4776  Tot=              5.0845
 Quadrupole moment (field-independent basis, Debye-Ang):
   XX=           -106.9664   YY=            -90.0676   ZZ=            -93.3970
   XY=             -7.6420   XZ=              7.1007   YZ=              0.5055
 Traceless Quadrupole moment (field-independent basis, Debye-Ang):
   XX=            -10.1561   YY=              6.7427   ZZ=              3.4133
   XY=             -7.6420   XZ=              7.1007   YZ=              0.5055
 Octapole moment (field-independent basis, Debye-Ang**2):
  XXX=            -12.3370  YYY=            -21.6062  ZZZ=              6.5954  XYY=             10.1364
  XXY=            -11.6531  XXZ=             21.0460  XZZ=            -14.1471  YZZ=             -2.5030
  YYZ=              5.1866  XYZ=             11.1913
 Hexadecapole moment (field-independent basis, Debye-Ang**3):
 XXXX=          -3914.7396 YYYY=          -1686.4831 ZZZZ=           -774.0397 XXXY=            -39.6907
 XXXZ=             42.9964 YYYX=            -46.4910 YYYZ=            -14.9957 ZZZX=            -16.7025
 ZZZY=            -16.9147 XXYY=           -940.1029 XXZZ=           -819.3960 YYZZ=           -409.9326
 XXYZ=             20.2390 YYXZ=            -10.2553 ZZXY=              4.0891
 N-N= 9.643576585533D+02 E-N=-3.491715275878D+03  KE= 6.679758981682D+02
 Leave Link  601 at Thu May  6 03:03:27 2021, MaxMem=   524288000 cpu:               0.6 elap:               0.6
 (Enter /opt/gaussian/g16_legacy/l9999.exe)
 1\1\GINC-TRUENO91\SP\RMP2-FC\6-31G(d)\C12H19N1O2\JRAMOS\06-May-2021\0\
 \#p 6-31g* mp2\\Input file generated by CHIRIPA (05-May-2021 14:55:22)
 \\0,1\C,0,1.914143,0.,0.\C,0,1.214143,1.211,0.\C,0,-0.183857,1.223,0.\
 C,0,-0.852857,0.,0.\C,0,-0.183857,-1.223,0.\C,0,1.214143,-1.211,0.\H,0
 ,3.000143,0.,0.\H,0,1.755143,2.153,0.\H,0,-0.750857,2.146,0.\H,0,-0.75
 0857,-2.146,0.\H,0,1.755143,-2.153,0.\N,0,-2.332857,0.,0.\O,0,-2.89885
 7,-1.091,0.\O,0,-2.898857,1.091,0.\C,0,1.29498,1.710116,4.777567\C,0,1
 .651444,0.225557,4.693883\C,0,2.493377,-0.247959,5.879094\H,0,2.220027
 ,2.300342,4.831108\H,0,0.750306,1.897083,5.713392\H,0,2.194075,0.04119
 4,3.757839\H,0,0.725445,-0.361192,4.640341\H,0,1.955684,-0.092725,6.82
 0046\H,0,3.432659,0.311946,5.932529\H,0,2.736779,-1.312008,5.798992\C,
 0,0.453467,2.198414,3.599793\C,0,0.097003,3.682973,3.683477\C,0,-0.744
 93,4.156489,2.498266\H,0,0.998141,2.011447,2.663968\H,0,-0.471579,1.60
 8188,3.546252\H,0,1.023003,4.269722,3.737019\H,0,-0.445628,3.867336,4.
 619521\H,0,-1.684212,3.596584,2.444831\H,0,-0.207237,4.001256,1.557314
 \H,0,-0.988331,5.220538,2.578368\\Version=EM64L-G16RevA.03\State=1-A\H
 F=-669.5340239\MP2=-671.6288286\RMSD=7.024e-09\PG=C01 [X(C12H19N1O2)]\
 \@


 COMMON SENSE IS NOT SO COMMON.   -- VOLTAIRE
 Job cpu time:       0 days  0 hours  5 minutes  8.5 seconds.
 Elapsed time:       0 days  0 hours  2 minutes 39.2 seconds.
 File lengths (MBytes):  RWF=     43 Int=      0 D2E=      0 Chk=      6 Scr=      1
 Normal termination of Gaussian 16 at Thu May  6 03:03:28 2021.
