 Entering Gaussian System, Link 0=/opt/gaussian/g16_legacy/g16
 Input=gaussian_00549_2_2.com
 Output=gaussian_00549_2_2.log
 Initial command:
 /opt/gaussian/g16_legacy/l1.exe "/scratch-local/jramos/2600332/Gau-25210.inp" -scrdir="/scratch-local/jramos/2600332/"
 Entering Link 1 = /opt/gaussian/g16_legacy/l1.exe PID=     25211.
  
 Copyright (c) 1988,1990,1992,1993,1995,1998,2003,2009,2016,
            Gaussian, Inc.  All Rights Reserved.
  
 This is part of the Gaussian(R) 16 program.  It is based on
 the Gaussian(R) 09 system (copyright 2009, Gaussian, Inc.),
 the Gaussian(R) 03 system (copyright 2003, Gaussian, Inc.),
 the Gaussian(R) 98 system (copyright 1998, Gaussian, Inc.),
 the Gaussian(R) 94 system (copyright 1995, Gaussian, Inc.),
 the Gaussian 92(TM) system (copyright 1992, Gaussian, Inc.),
 the Gaussian 90(TM) system (copyright 1990, Gaussian, Inc.),
 the Gaussian 88(TM) system (copyright 1988, Gaussian, Inc.),
 the Gaussian 86(TM) system (copyright 1986, Carnegie Mellon
 University), and the Gaussian 82(TM) system (copyright 1983,
 Carnegie Mellon University). Gaussian is a federally registered
 trademark of Gaussian, Inc.
  
 This software contains proprietary and confidential information,
 including trade secrets, belonging to Gaussian, Inc.
  
 This software is provided under written license and may be
 used, copied, transmitted, or stored only in accord with that
 written license.
  
 The following legend is applicable only to US Government
 contracts under FAR:
  
                    RESTRICTED RIGHTS LEGEND
  
 Use, reproduction and disclosure by the US Government is
 subject to restrictions as set forth in subparagraphs (a)
 and (c) of the Commercial Computer Software - Restricted
 Rights clause in FAR 52.227-19.
  
 Gaussian, Inc.
 340 Quinnipiac St., Bldg. 40, Wallingford CT 06492
  
  
 ---------------------------------------------------------------
 Warning -- This program may not be used in any manner that
 competes with the business of Gaussian, Inc. or will provide
 assistance to any competitor of Gaussian, Inc.  The licensee
 of this program is prohibited from giving any competitor of
 Gaussian, Inc. access to this program.  By using this program,
 the user acknowledges that Gaussian, Inc. is engaged in the
 business of creating and licensing software in the field of
 computational chemistry and represents and warrants to the
 licensee that it is not a competitor of Gaussian, Inc. and that
 it will not use this program in any manner prohibited above.
 ---------------------------------------------------------------
  

 Cite this work as:
 Gaussian 16, Revision A.03,
 M. J. Frisch, G. W. Trucks, H. B. Schlegel, G. E. Scuseria, 
 M. A. Robb, J. R. Cheeseman, G. Scalmani, V. Barone, 
 G. A. Petersson, H. Nakatsuji, X. Li, M. Caricato, A. V. Marenich, 
 J. Bloino, B. G. Janesko, R. Gomperts, B. Mennucci, H. P. Hratchian, 
 J. V. Ortiz, A. F. Izmaylov, J. L. Sonnenberg, D. Williams-Young, 
 F. Ding, F. Lipparini, F. Egidi, J. Goings, B. Peng, A. Petrone, 
 T. Henderson, D. Ranasinghe, V. G. Zakrzewski, J. Gao, N. Rega, 
 G. Zheng, W. Liang, M. Hada, M. Ehara, K. Toyota, R. Fukuda, 
 J. Hasegawa, M. Ishida, T. Nakajima, Y. Honda, O. Kitao, H. Nakai, 
 T. Vreven, K. Throssell, J. A. Montgomery, Jr., J. E. Peralta, 
 F. Ogliaro, M. J. Bearpark, J. J. Heyd, E. N. Brothers, K. N. Kudin, 
 V. N. Staroverov, T. A. Keith, R. Kobayashi, J. Normand, 
 K. Raghavachari, A. P. Rendell, J. C. Burant, S. S. Iyengar, 
 J. Tomasi, M. Cossi, J. M. Millam, M. Klene, C. Adamo, R. Cammi, 
 J. W. Ochterski, R. L. Martin, K. Morokuma, O. Farkas, 
 J. B. Foresman, and D. J. Fox, Gaussian, Inc., Wallingford CT, 2016.
 
 ******************************************
 Gaussian 16:  EM64L-G16RevA.03 25-Dec-2016
                 6-May-2021 
 ******************************************
 %chk=gaussian_00549_2_2.chk
 %nproc=2
 Will use up to    2 processors via shared memory.
 %mem=4000Mb
 -------------
 #p 6-31g* mp2
 -------------
 1/38=1,172=1/1;
 2/12=2,17=6,18=5,40=1/2;
 3/5=1,6=6,7=1,11=9,25=1,30=1/1,2,3;
 4//1;
 5/5=2,38=5/2;
 8/10=2/1;
 9/16=-3/6;
 6/7=2,8=2,9=2,10=2/1;
 99/5=1,9=1/99;
 Leave Link    1 at Thu May  6 17:48:51 2021, MaxMem=   524288000 cpu:               0.1 elap:               0.1
 (Enter /opt/gaussian/g16_legacy/l101.exe)
 ------------------------------------------------------
 Input file generated by CHIRIPA (05-May-2021 14:57:21)
 ------------------------------------------------------
 Symbolic Z-matrix:
 Charge =  0 Multiplicity = 1
 C                     1.91414   0.        0. 
 C                     1.21414   1.211     0. 
 C                    -0.18386   1.223     0. 
 C                    -0.85286   0.        0. 
 C                    -0.18386  -1.223     0. 
 C                     1.21414  -1.211     0. 
 H                     3.00014   0.        0. 
 H                     1.75514   2.153     0. 
 H                    -0.75086   2.146     0. 
 H                    -0.75086  -2.146     0. 
 H                     1.75514  -2.153     0. 
 N                    -2.33286   0.        0. 
 O                    -2.89886  -1.091     0. 
 O                    -2.89886   1.091     0. 
 C                     1.65899  -5.08769  -4.36574 
 C                     1.46185  -4.53371  -3.09659 
 C                     0.18332  -4.48742  -2.53288 
 C                    -0.88028  -5.00654  -3.26947 
 C                    -0.71599  -5.56491  -4.53617 
 C                     0.57136  -5.60062  -5.08022 
 H                     2.65561  -5.11954  -4.79601 
 H                     2.30466  -4.13461  -2.53942 
 H                     0.00234  -4.0642   -1.55229 
 H                    -1.57568  -5.95487  -5.06747 
 H                     0.7215   -6.03145  -6.06607 
 N                    -2.23847  -4.96314  -2.6831 
 O                    -3.15901  -5.42714  -3.35239 
 O                    -2.35676  -4.46594  -1.56532 
 
 ITRead=  0  0  0  0  0  0  0  0  0  0  0  0  0  0  0  0  0  0  0  0
 ITRead=  0  0  0  0  0  0  0  0
 MicOpt= -1 -1 -1 -1 -1 -1 -1 -1 -1 -1 -1 -1 -1 -1 -1 -1 -1 -1 -1 -1
 MicOpt= -1 -1 -1 -1 -1 -1 -1 -1
 NAtoms=     28 NQM=       28 NQMF=       0 NMMI=      0 NMMIF=      0
                NMic=       0 NMicF=      0.
                    Isotopes and Nuclear Properties:
 (Nuclear quadrupole moments (NQMom) in fm**2, nuclear magnetic moments (NMagM)
  in nuclear magnetons)

  Atom         1           2           3           4           5           6           7           8           9          10
 IAtWgt=          12          12          12          12          12          12           1           1           1           1
 AtmWgt=  12.0000000  12.0000000  12.0000000  12.0000000  12.0000000  12.0000000   1.0078250   1.0078250   1.0078250   1.0078250
 NucSpn=           0           0           0           0           0           0           1           1           1           1
 AtZEff=  -0.0000000  -0.0000000  -0.0000000  -0.0000000  -0.0000000  -0.0000000  -0.0000000  -0.0000000  -0.0000000  -0.0000000
 NQMom=    0.0000000   0.0000000   0.0000000   0.0000000   0.0000000   0.0000000   0.0000000   0.0000000   0.0000000   0.0000000
 NMagM=    0.0000000   0.0000000   0.0000000   0.0000000   0.0000000   0.0000000   2.7928460   2.7928460   2.7928460   2.7928460
 AtZNuc=   6.0000000   6.0000000   6.0000000   6.0000000   6.0000000   6.0000000   1.0000000   1.0000000   1.0000000   1.0000000

  Atom        11          12          13          14          15          16          17          18          19          20
 IAtWgt=           1          14          16          16          12          12          12          12          12          12
 AtmWgt=   1.0078250  14.0030740  15.9949146  15.9949146  12.0000000  12.0000000  12.0000000  12.0000000  12.0000000  12.0000000
 NucSpn=           1           2           0           0           0           0           0           0           0           0
 AtZEff=  -0.0000000  -0.0000000  -0.0000000  -0.0000000  -0.0000000  -0.0000000  -0.0000000  -0.0000000  -0.0000000  -0.0000000
 NQMom=    0.0000000   2.0440000   0.0000000   0.0000000   0.0000000   0.0000000   0.0000000   0.0000000   0.0000000   0.0000000
 NMagM=    2.7928460   0.4037610   0.0000000   0.0000000   0.0000000   0.0000000   0.0000000   0.0000000   0.0000000   0.0000000
 AtZNuc=   1.0000000   7.0000000   8.0000000   8.0000000   6.0000000   6.0000000   6.0000000   6.0000000   6.0000000   6.0000000

  Atom        21          22          23          24          25          26          27          28
 IAtWgt=           1           1           1           1           1          14          16          16
 AtmWgt=   1.0078250   1.0078250   1.0078250   1.0078250   1.0078250  14.0030740  15.9949146  15.9949146
 NucSpn=           1           1           1           1           1           2           0           0
 AtZEff=  -0.0000000  -0.0000000  -0.0000000  -0.0000000  -0.0000000  -0.0000000  -0.0000000  -0.0000000
 NQMom=    0.0000000   0.0000000   0.0000000   0.0000000   0.0000000   2.0440000   0.0000000   0.0000000
 NMagM=    2.7928460   2.7928460   2.7928460   2.7928460   2.7928460   0.4037610   0.0000000   0.0000000
 AtZNuc=   1.0000000   1.0000000   1.0000000   1.0000000   1.0000000   7.0000000   8.0000000   8.0000000
 Leave Link  101 at Thu May  6 17:48:52 2021, MaxMem=   524288000 cpu:               0.1 elap:               0.1
 (Enter /opt/gaussian/g16_legacy/l202.exe)
                          Input orientation:                          
 ---------------------------------------------------------------------
 Center     Atomic      Atomic             Coordinates (Angstroms)
 Number     Number       Type             X           Y           Z
 ---------------------------------------------------------------------
      1          6           0        1.914143    0.000000    0.000000
      2          6           0        1.214143    1.211000    0.000000
      3          6           0       -0.183857    1.223000    0.000000
      4          6           0       -0.852857    0.000000    0.000000
      5          6           0       -0.183857   -1.223000    0.000000
      6          6           0        1.214143   -1.211000    0.000000
      7          1           0        3.000143    0.000000    0.000000
      8          1           0        1.755143    2.153000    0.000000
      9          1           0       -0.750857    2.146000    0.000000
     10          1           0       -0.750857   -2.146000    0.000000
     11          1           0        1.755143   -2.153000    0.000000
     12          7           0       -2.332857    0.000000    0.000000
     13          8           0       -2.898857   -1.091000    0.000000
     14          8           0       -2.898857    1.091000    0.000000
     15          6           0        1.658993   -5.087692   -4.365741
     16          6           0        1.461847   -4.533705   -3.096586
     17          6           0        0.183317   -4.487419   -2.532877
     18          6           0       -0.880277   -5.006544   -3.269469
     19          6           0       -0.715992   -5.564908   -4.536169
     20          6           0        0.571362   -5.600621   -5.080222
     21          1           0        2.655612   -5.119541   -4.796009
     22          1           0        2.304662   -4.134610   -2.539423
     23          1           0        0.002338   -4.064200   -1.552291
     24          1           0       -1.575682   -5.954871   -5.067470
     25          1           0        0.721495   -6.031448   -6.066068
     26          7           0       -2.238470   -4.963140   -2.683100
     27          8           0       -3.159010   -5.427138   -3.352390
     28          8           0       -2.356764   -4.465944   -1.565316
 ---------------------------------------------------------------------
                    Distance matrix (angstroms):
                    1          2          3          4          5
     1  C    0.000000
     2  C    1.398757   0.000000
     3  C    2.428443   1.398052   0.000000
     4  C    2.767000   2.395623   1.394019   0.000000
     5  C    2.428443   2.806913   2.446000   1.394019   0.000000
     6  C    1.398757   2.422000   2.806913   2.395623   1.398052
     7  H    1.086000   2.157850   3.410804   3.853000   3.410804
     8  H    2.158863   1.086299   2.150493   3.381874   3.893212
     9  H    3.421628   2.176109   1.083244   2.148423   3.416380
    10  H    3.421628   3.889817   3.416380   2.148423   1.083244
    11  H    2.158863   3.407224   3.893212   3.381874   2.150493
    12  N    4.247000   3.748030   2.472636   1.480000   2.472636
    13  O    4.935104   4.713382   3.567327   2.318706   2.718207
    14  O    4.935104   4.114750   2.718207   2.318706   3.567327
    15  C    6.708905   7.676660   7.891807   7.159169   6.114870
    16  C    5.508893   6.530837   6.740685   5.958287   4.822650
    17  C    5.435821   6.320605   6.257729   5.256049   4.148098
    18  C    6.600280   7.330339   7.069770   5.979604   5.048726
    19  C    7.646087   8.379450   8.181424   7.180791   6.301759
    20  C    7.679757   8.521737   8.540539   7.694414   6.748524
    21  H    7.054160   8.071882   8.443466   7.843517   6.800538
    22  H    4.867872   6.017761   6.430037   5.789093   4.595527
    23  H    4.752087   5.630792   5.513507   4.433812   3.242945
    24  H    8.562629   9.209348   8.895969   7.852529   7.071565
    25  H    8.637011   9.460071   9.499677   8.697938   7.793460
    26  N    7.005425   7.565684   7.049027   5.809622   5.040745
    27  O    8.150413   8.627158   8.019625   6.783118   6.145310
    28  O    6.374599   6.886892   6.287752   4.965542   4.205761
                    6          7          8          9         10
     6  C    0.000000
     7  H    2.157850   0.000000
     8  H    3.407224   2.487053   0.000000
     9  H    3.889817   4.321495   2.506010   0.000000
    10  H    2.176109   4.321495   4.976087   4.292000   0.000000
    11  H    1.086299   2.487053   4.306000   4.976087   2.506010
    12  N    3.748030   5.333000   4.620298   2.666091   2.666091
    13  O    4.114750   5.999040   5.673028   3.884852   2.393100
    14  O    4.713382   5.999040   4.773632   2.393100   3.884852
    15  C    5.855453   6.836884   8.455564   8.785976   5.789700
    16  C    4.548689   5.701726   7.374747   7.687871   4.492888
    17  C    4.267668   5.872555   7.278823   7.161731   3.573568
    18  C    5.429749   7.128294   8.300237   7.865435   4.346135
    19  C    6.577140   8.084225   9.287058   8.946292   5.680403
    20  C    6.744672   7.941951   9.344979   9.357727   6.284212
    21  H    6.352655   7.023539   8.757991   9.348466   6.591485
    22  H    4.023108   4.901771   6.803284   7.431751   4.442908
    23  H    3.466818   5.283386   6.643456   6.445424   2.580000
    24  H    7.481089   9.059686  10.124782   9.590813   6.392737
    25  H    7.763801   8.852558  10.239668  10.287646   7.352667
    26  N    5.761781   7.699016   8.589960   7.742861   4.165129
    27  O    6.938213   8.867216   9.635658   8.624972   5.272911
    28  O    5.079001   7.147819   7.947856   6.981902   3.226653
                   11         12         13         14         15
    11  H    0.000000
    12  N    4.620298   0.000000
    13  O    4.773632   1.229080   0.000000
    14  O    5.673028   1.229080   2.182000   0.000000
    15  C    5.261307   7.802511   7.470424   8.832323   0.000000
    16  C    3.916966   6.674062   6.360566   7.761565   1.398758
    17  C    3.786240   5.734416   5.239363   6.858135   2.428443
    18  C    5.077163   6.153446   5.485944   7.207228   2.767000
    19  C    6.190675   7.359299   6.734804   8.345229   2.428443
    20  C    6.252686   8.100006   7.628090   9.090042   1.398757
    21  H    5.710772   8.607916   8.371557   9.613774   1.085999
    22  H    3.267632   6.711948   6.541318   7.799505   2.158863
    23  H    3.022353   4.937658   4.434688   6.115769   3.421629
    24  H    7.157365   7.855766   7.147537   8.779199   3.421629
    25  H    7.273786   9.083205   8.620450  10.031620   2.158863
    26  N    5.571791   5.642756   4.756953   6.654904   4.247000
    27  O    6.790243   6.432330   5.487102   7.334325   4.935105
    28  O    4.970684   4.732382   3.759565   5.798595   4.935104
                   16         17         18         19         20
    16  C    0.000000
    17  C    1.398052   0.000000
    18  C    2.395623   1.394020   0.000000
    19  C    2.806913   2.446000   1.394019   0.000000
    20  C    2.422000   2.806914   2.395623   1.398052   0.000000
    21  H    2.157850   3.410804   3.852999   3.410804   2.157849
    22  H    1.086299   2.150493   3.381874   3.893212   3.407224
    23  H    2.176109   1.083244   2.148423   3.416380   3.889817
    24  H    3.889817   3.416380   2.148423   1.083245   2.176110
    25  H    3.407224   3.893212   3.381873   2.150493   1.086298
    26  N    3.748030   2.472636   1.480000   2.472636   3.748030
    27  O    4.713383   3.567327   2.318706   2.718207   4.114751
    28  O    4.114750   2.718207   2.318706   3.567327   4.713383
                   21         22         23         24         25
    21  H    0.000000
    22  H    2.487054   0.000000
    23  H    4.321494   2.506009   0.000000
    24  H    4.321495   4.976087   4.292000   0.000000
    25  H    2.487053   4.306000   4.976086   2.506010   0.000000
    26  N    5.333000   4.620298   2.666091   2.666091   4.620297
    27  O    5.999040   5.673029   3.884852   2.393100   4.773632
    28  O    5.999040   4.773632   2.393101   3.884852   5.673028
                   26         27         28
    26  N    0.000000
    27  O    1.229080   0.000000
    28  O    1.229080   2.182000   0.000000
 Stoichiometry    C12H10N2O4
 Framework group  C1[X(C12H10N2O4)]
 Deg. of freedom    78
 Full point group                 C1      NOp   1
 Largest Abelian subgroup         C1      NOp   1
 Largest concise Abelian subgroup C1      NOp   1
                         Standard orientation:                         
 ---------------------------------------------------------------------
 Center     Atomic      Atomic             Coordinates (Angstroms)
 Number     Number       Type             X           Y           Z
 ---------------------------------------------------------------------
      1          6           0        2.972018    2.579975   -0.337823
      2          6           0        3.985008    1.999604    0.432593
      3          6           0        4.020617    0.616432    0.632883
      4          6           0        3.022882   -0.159887    0.045394
      5          6           0        2.000551    0.388671   -0.727402
      6          6           0        1.984763    1.774077   -0.914346
      7          1           0        2.952054    3.655324   -0.488229
      8          1           0        4.753028    2.623013    0.881538
      9          1           0        4.793313    0.140939    1.224715
     10          1           0        1.248701   -0.258714   -1.162180
     11          1           0        1.196854    2.222056   -1.513143
     12          7           0        3.050088   -1.625372    0.250368
     13          8           0        2.159474   -2.287410   -0.277978
     14          8           0        3.961511   -2.084232    0.935490
     15          6           0       -3.685432    2.308300    0.445736
     16          6           0       -2.509033    2.032483   -0.258916
     17          6           0       -2.129616    0.712088   -0.518051
     18          6           0       -2.953912   -0.312693   -0.055827
     19          6           0       -4.131937   -0.070077    0.648931
     20          6           0       -4.491707    1.257992    0.896616
     21          1           0       -3.972540    3.336994    0.642592
     22          1           0       -1.880928    2.846162   -0.610277
     23          1           0       -1.224141    0.470159   -1.061190
     24          1           0       -4.737615   -0.902310    0.986514
     25          1           0       -5.405864    1.469217    1.444107
     26          7           0       -2.562640   -1.714597   -0.324100
     27          8           0       -3.306109   -2.599604    0.093816
     28          8           0       -1.519901   -1.901858   -0.947211
 ---------------------------------------------------------------------
 Rotational constants (GHZ):           0.5975622           0.2005652           0.1585735
 Leave Link  202 at Thu May  6 17:48:52 2021, MaxMem=   524288000 cpu:               0.0 elap:               0.1
 (Enter /opt/gaussian/g16_legacy/l301.exe)
 Standard basis: 6-31G(d) (6D, 7F)
 Ernie: Thresh=  0.10000D-02 Tol=  0.10000D-05 Strict=F.
 There are   290 symmetry adapted cartesian basis functions of A   symmetry.
 There are   290 symmetry adapted basis functions of A   symmetry.
   290 basis functions,   544 primitive gaussians,   290 cartesian basis functions
    64 alpha electrons       64 beta electrons
       nuclear repulsion energy      1166.8702701721 Hartrees.
 IExCor=    0 DFT=F Ex=HF Corr=None ExCW=0 ScaHFX=  1.000000
 ScaDFX=  1.000000  1.000000  1.000000  1.000000 ScalE2=  1.000000  1.000000
 IRadAn=      5 IRanWt=     -1 IRanGd=            0 ICorTp=0 IEmpDi=  4
 NAtoms=   28 NActive=   28 NUniq=   28 SFac= 1.00D+00 NAtFMM=   60 NAOKFM=F Big=F
 Integral buffers will be    131072 words long.
 Raffenetti 1 integral format.
 Two-electron integral symmetry is turned on.
 Leave Link  301 at Thu May  6 17:48:52 2021, MaxMem=   524288000 cpu:               0.2 elap:               0.1
 (Enter /opt/gaussian/g16_legacy/l302.exe)
 NPDir=0 NMtPBC=     1 NCelOv=     1 NCel=       1 NClECP=     1 NCelD=      1
         NCelK=      1 NCelE2=     1 NClLst=     1 CellRange=     0.0.
 One-electron integrals computed using PRISM.
 One-electron integral symmetry used in STVInt
 NBasis=   290 RedAO= T EigKep=  4.64D-04  NBF=   290
 NBsUse=   290 1.00D-06 EigRej= -1.00D+00 NBFU=   290
 Leave Link  302 at Thu May  6 17:48:53 2021, MaxMem=   524288000 cpu:               0.5 elap:               0.4
 (Enter /opt/gaussian/g16_legacy/l303.exe)
 DipDrv:  MaxL=1.
 Leave Link  303 at Thu May  6 17:48:53 2021, MaxMem=   524288000 cpu:               0.1 elap:               0.1
 (Enter /opt/gaussian/g16_legacy/l401.exe)
 ExpMin= 1.61D-01 ExpMax= 5.48D+03 ExpMxC= 8.25D+02 IAcc=3 IRadAn=         5 AccDes= 0.00D+00
 Harris functional with IExCor=  205 and IRadAn=       5 diagonalized for initial guess.
 HarFok:  IExCor=  205 AccDes= 0.00D+00 IRadAn=         5 IDoV= 1 UseB2=F ITyADJ=14
 ICtDFT=  3500011 ScaDFX=  1.000000  1.000000  1.000000  1.000000
 FoFCou: FMM=F IPFlag=           0 FMFlag=      100000 FMFlg1=           0
         NFxFlg=           0 DoJE=T BraDBF=F KetDBF=T FulRan=T
         wScrn=  0.000000 ICntrl=       500 IOpCl=  0 I1Cent=   200000004 NGrid=           0
         NMat0=    1 NMatS0=      1 NMatT0=    0 NMatD0=    1 NMtDS0=    0 NMtDT0=    0
 Petite list used in FoFCou.
 Harris En= -869.212767277698    
 JPrj=0 DoOrth=F DoCkMO=F.
 Leave Link  401 at Thu May  6 17:48:57 2021, MaxMem=   524288000 cpu:               7.5 elap:               3.9
 (Enter /opt/gaussian/g16_legacy/l502.exe)
 Integral symmetry usage will be decided dynamically.
 Closed shell SCF:
 Using DIIS extrapolation, IDIIS=  1040.
 NGot=   524288000 LenX=   524114954 LenY=   524030413
 Requested convergence on RMS density matrix=1.00D-08 within 128 cycles.
 Requested convergence on MAX density matrix=1.00D-06.
 Requested convergence on             energy=1.00D-06.
 No special actions if energy rises.
 Fock matrices will be formed incrementally for  20 cycles.
 Integral accuracy reduced to 1.0D-05 until final iterations.

 Cycle   1  Pass 0  IDiag  1:
 FoFJK:  IHMeth= 1 ICntrl=       0 DoSepK=F KAlg= 0 I1Cent=           0 FoldK=F
 IRaf= 730000000 NMat=       1 IRICut=       1 DoRegI=T DoRafI=F ISym2E= 0 IDoP0=0 IntGTp=1.
 FoFCou: FMM=F IPFlag=           0 FMFlag=      100000 FMFlg1=           0
         NFxFlg=           0 DoJE=F BraDBF=F KetDBF=F FulRan=T
         wScrn=  0.000000 ICntrl=         0 IOpCl=  0 I1Cent=           0 NGrid=           0
         NMat0=    1 NMatS0=      1 NMatT0=    0 NMatD0=    1 NMtDS0=    0 NMtDT0=    0
 Symmetry not used in FoFCou.
 E= -867.607308104027    
 DIIS: error= 5.31D-02 at cycle   1 NSaved=   1.
 NSaved= 1 IEnMin= 1 EnMin= -867.607308104027     IErMin= 1 ErrMin= 5.31D-02
 ErrMax= 5.31D-02  0.00D+00 EMaxC= 1.00D-01 BMatC= 1.28D+00 BMatP= 1.28D+00
 IDIUse=3 WtCom= 4.69D-01 WtEn= 5.31D-01
 Coeff-Com:  0.100D+01
 Coeff-En:   0.100D+01
 Coeff:      0.100D+01
 Gap=     0.548 Goal=   None    Shift=    0.000
 GapD=    0.548 DampG=2.000 DampE=0.500 DampFc=1.0000 IDamp=-1.
 RMSDP=4.47D-03 MaxDP=8.93D-02              OVMax= 1.50D-01

 Cycle   2  Pass 0  IDiag  1:
 RMSU=  4.36D-03    CP:  9.52D-01
 E= -868.117466546442     Delta-E=       -0.510158442414 Rises=F Damp=F
 DIIS: error= 2.81D-02 at cycle   2 NSaved=   2.
 NSaved= 2 IEnMin= 2 EnMin= -868.117466546442     IErMin= 2 ErrMin= 2.81D-02
 ErrMax= 2.81D-02  0.00D+00 EMaxC= 1.00D-01 BMatC= 2.90D-01 BMatP= 1.28D+00
 IDIUse=3 WtCom= 7.19D-01 WtEn= 2.81D-01
 Coeff-Com:  0.268D+00 0.732D+00
 Coeff-En:   0.000D+00 0.100D+01
 Coeff:      0.193D+00 0.807D+00
 Gap=     0.471 Goal=   None    Shift=    0.000
 RMSDP=1.83D-03 MaxDP=8.16D-02 DE=-5.10D-01 OVMax= 1.20D-01

 Cycle   3  Pass 0  IDiag  1:
 RMSU=  1.62D-03    CP:  9.54D-01  8.04D-01
 E= -868.289303458270     Delta-E=       -0.171836911828 Rises=F Damp=F
 DIIS: error= 1.46D-02 at cycle   3 NSaved=   3.
 NSaved= 3 IEnMin= 3 EnMin= -868.289303458270     IErMin= 3 ErrMin= 1.46D-02
 ErrMax= 1.46D-02  0.00D+00 EMaxC= 1.00D-01 BMatC= 6.13D-02 BMatP= 2.90D-01
 IDIUse=3 WtCom= 8.54D-01 WtEn= 1.46D-01
 Coeff-Com: -0.223D-01 0.297D+00 0.725D+00
 Coeff-En:   0.000D+00 0.491D-01 0.951D+00
 Coeff:     -0.190D-01 0.261D+00 0.758D+00
 Gap=     0.425 Goal=   None    Shift=    0.000
 RMSDP=6.66D-04 MaxDP=2.84D-02 DE=-1.72D-01 OVMax= 4.33D-02

 Cycle   4  Pass 0  IDiag  1:
 RMSU=  3.84D-04    CP:  9.53D-01  8.98D-01  7.79D-01
 E= -868.332875548455     Delta-E=       -0.043572090184 Rises=F Damp=F
 DIIS: error= 2.50D-03 at cycle   4 NSaved=   4.
 NSaved= 4 IEnMin= 4 EnMin= -868.332875548455     IErMin= 4 ErrMin= 2.50D-03
 ErrMax= 2.50D-03  0.00D+00 EMaxC= 1.00D-01 BMatC= 2.38D-03 BMatP= 6.13D-02
 IDIUse=3 WtCom= 9.75D-01 WtEn= 2.50D-02
 Coeff-Com: -0.124D-01 0.461D-01 0.241D+00 0.725D+00
 Coeff-En:   0.000D+00 0.000D+00 0.000D+00 0.100D+01
 Coeff:     -0.121D-01 0.449D-01 0.235D+00 0.732D+00
 Gap=     0.410 Goal=   None    Shift=    0.000
 RMSDP=1.66D-04 MaxDP=5.41D-03 DE=-4.36D-02 OVMax= 9.26D-03

 Cycle   5  Pass 0  IDiag  1:
 RMSU=  1.12D-04    CP:  9.52D-01  9.00D-01  8.41D-01  8.31D-01
 E= -868.334979342560     Delta-E=       -0.002103794106 Rises=F Damp=F
 DIIS: error= 5.01D-04 at cycle   5 NSaved=   5.
 NSaved= 5 IEnMin= 5 EnMin= -868.334979342560     IErMin= 5 ErrMin= 5.01D-04
 ErrMax= 5.01D-04  0.00D+00 EMaxC= 1.00D-01 BMatC= 7.94D-05 BMatP= 2.38D-03
 IDIUse=3 WtCom= 9.95D-01 WtEn= 5.01D-03
 Coeff-Com:  0.192D-02-0.228D-01-0.634D-01 0.874D-02 0.108D+01
 Coeff-En:   0.000D+00 0.000D+00 0.000D+00 0.000D+00 0.100D+01
 Coeff:      0.191D-02-0.227D-01-0.631D-01 0.870D-02 0.108D+01
 Gap=     0.413 Goal=   None    Shift=    0.000
 RMSDP=5.83D-05 MaxDP=1.39D-03 DE=-2.10D-03 OVMax= 4.41D-03

 Cycle   6  Pass 0  IDiag  1:
 RMSU=  2.86D-05    CP:  9.52D-01  9.04D-01  8.52D-01  9.28D-01  1.22D+00
 E= -868.335144522830     Delta-E=       -0.000165180270 Rises=F Damp=F
 DIIS: error= 2.02D-04 at cycle   6 NSaved=   6.
 NSaved= 6 IEnMin= 6 EnMin= -868.335144522830     IErMin= 6 ErrMin= 2.02D-04
 ErrMax= 2.02D-04  0.00D+00 EMaxC= 1.00D-01 BMatC= 1.02D-05 BMatP= 7.94D-05
 IDIUse=3 WtCom= 9.98D-01 WtEn= 2.02D-03
 Coeff-Com:  0.130D-02-0.747D-02-0.311D-01-0.622D-01 0.917D-01 0.101D+01
 Coeff-En:   0.000D+00 0.000D+00 0.000D+00 0.000D+00 0.000D+00 0.100D+01
 Coeff:      0.130D-02-0.746D-02-0.311D-01-0.621D-01 0.915D-01 0.101D+01
 Gap=     0.413 Goal=   None    Shift=    0.000
 RMSDP=2.27D-05 MaxDP=6.26D-04 DE=-1.65D-04 OVMax= 1.82D-03

 Cycle   7  Pass 0  IDiag  1:
 RMSU=  1.08D-05    CP:  9.52D-01  9.05D-01  8.56D-01  9.48D-01  1.36D+00
                    CP:  1.25D+00
 E= -868.335173841212     Delta-E=       -0.000029318381 Rises=F Damp=F
 DIIS: error= 1.38D-04 at cycle   7 NSaved=   7.
 NSaved= 7 IEnMin= 7 EnMin= -868.335173841212     IErMin= 7 ErrMin= 1.38D-04
 ErrMax= 1.38D-04  0.00D+00 EMaxC= 1.00D-01 BMatC= 2.03D-06 BMatP= 1.02D-05
 IDIUse=3 WtCom= 9.99D-01 WtEn= 1.38D-03
 Coeff-Com: -0.155D-03 0.246D-02 0.622D-02-0.214D-02-0.143D+00 0.516D-01
 Coeff-Com:  0.108D+01
 Coeff-En:   0.000D+00 0.000D+00 0.000D+00 0.000D+00 0.000D+00 0.000D+00
 Coeff-En:   0.100D+01
 Coeff:     -0.155D-03 0.245D-02 0.621D-02-0.214D-02-0.143D+00 0.515D-01
 Coeff:      0.108D+01
 Gap=     0.413 Goal=   None    Shift=    0.000
 RMSDP=1.08D-05 MaxDP=3.43D-04 DE=-2.93D-05 OVMax= 1.31D-03

 Cycle   8  Pass 0  IDiag  1:
 RMSU=  5.48D-06    CP:  9.52D-01  9.05D-01  8.55D-01  9.55D-01  1.39D+00
                    CP:  1.49D+00  1.34D+00
 E= -868.335181813937     Delta-E=       -0.000007972726 Rises=F Damp=F
 DIIS: error= 6.43D-05 at cycle   8 NSaved=   8.
 NSaved= 8 IEnMin= 8 EnMin= -868.335181813937     IErMin= 8 ErrMin= 6.43D-05
 ErrMax= 6.43D-05  0.00D+00 EMaxC= 1.00D-01 BMatC= 5.48D-07 BMatP= 2.03D-06
 IDIUse=1 WtCom= 1.00D+00 WtEn= 0.00D+00
 Coeff-Com: -0.327D-03 0.217D-02 0.848D-02 0.159D-01-0.391D-01-0.241D+00
 Coeff-Com:  0.103D+00 0.115D+01
 Coeff:     -0.327D-03 0.217D-02 0.848D-02 0.159D-01-0.391D-01-0.241D+00
 Coeff:      0.103D+00 0.115D+01
 Gap=     0.413 Goal=   None    Shift=    0.000
 RMSDP=6.90D-06 MaxDP=1.75D-04 DE=-7.97D-06 OVMax= 7.86D-04

 Initial convergence to 1.0D-05 achieved.  Increase integral accuracy.
 Cycle   9  Pass 1  IDiag  1:
 E= -868.335179645372     Delta-E=        0.000002168565 Rises=F Damp=F
 DIIS: error= 4.08D-05 at cycle   1 NSaved=   1.
 NSaved= 1 IEnMin= 1 EnMin= -868.335179645372     IErMin= 1 ErrMin= 4.08D-05
 ErrMax= 4.08D-05  0.00D+00 EMaxC= 1.00D-01 BMatC= 3.69D-07 BMatP= 3.69D-07
 IDIUse=1 WtCom= 1.00D+00 WtEn= 0.00D+00
 Coeff-Com:  0.100D+01
 Coeff:      0.100D+01
 Gap=     0.413 Goal=   None    Shift=    0.000
 RMSDP=6.90D-06 MaxDP=1.75D-04 DE= 2.17D-06 OVMax= 2.28D-04

 Cycle  10  Pass 1  IDiag  1:
 RMSU=  2.16D-05    CP:  1.00D+00
 E= -868.335180156467     Delta-E=       -0.000000511095 Rises=F Damp=F
 DIIS: error= 1.63D-05 at cycle   2 NSaved=   2.
 NSaved= 2 IEnMin= 2 EnMin= -868.335180156467     IErMin= 2 ErrMin= 1.63D-05
 ErrMax= 1.63D-05  0.00D+00 EMaxC= 1.00D-01 BMatC= 5.06D-08 BMatP= 3.69D-07
 IDIUse=1 WtCom= 1.00D+00 WtEn= 0.00D+00
 Coeff-Com:  0.572D-01 0.943D+00
 Coeff:      0.572D-01 0.943D+00
 Gap=     0.413 Goal=   None    Shift=    0.000
 RMSDP=1.55D-06 MaxDP=4.30D-05 DE=-5.11D-07 OVMax= 1.23D-04

 Cycle  11  Pass 1  IDiag  1:
 RMSU=  1.23D-06    CP:  1.00D+00  1.04D+00
 E= -868.335180280524     Delta-E=       -0.000000124057 Rises=F Damp=F
 DIIS: error= 1.20D-05 at cycle   3 NSaved=   3.
 NSaved= 3 IEnMin= 3 EnMin= -868.335180280524     IErMin= 3 ErrMin= 1.20D-05
 ErrMax= 1.20D-05  0.00D+00 EMaxC= 1.00D-01 BMatC= 2.66D-08 BMatP= 5.06D-08
 IDIUse=1 WtCom= 1.00D+00 WtEn= 0.00D+00
 Coeff-Com: -0.798D-01 0.341D+00 0.739D+00
 Coeff:     -0.798D-01 0.341D+00 0.739D+00
 Gap=     0.413 Goal=   None    Shift=    0.000
 RMSDP=7.61D-07 MaxDP=2.34D-05 DE=-1.24D-07 OVMax= 8.27D-05

 Cycle  12  Pass 1  IDiag  1:
 RMSU=  6.64D-07    CP:  1.00D+00  1.05D+00  1.23D+00
 E= -868.335180341335     Delta-E=       -0.000000060812 Rises=F Damp=F
 DIIS: error= 7.59D-06 at cycle   4 NSaved=   4.
 NSaved= 4 IEnMin= 4 EnMin= -868.335180341335     IErMin= 4 ErrMin= 7.59D-06
 ErrMax= 7.59D-06  0.00D+00 EMaxC= 1.00D-01 BMatC= 7.12D-09 BMatP= 2.66D-08
 IDIUse=1 WtCom= 1.00D+00 WtEn= 0.00D+00
 Coeff-Com:  0.165D-01-0.633D+00-0.374D+00 0.199D+01
 Coeff:      0.165D-01-0.633D+00-0.374D+00 0.199D+01
 Gap=     0.413 Goal=   None    Shift=    0.000
 RMSDP=1.30D-06 MaxDP=2.94D-05 DE=-6.08D-08 OVMax= 1.59D-04

 Cycle  13  Pass 1  IDiag  1:
 RMSU=  2.58D-07    CP:  1.00D+00  1.06D+00  2.08D+00  2.09D+00
 E= -868.335180390373     Delta-E=       -0.000000049038 Rises=F Damp=F
 DIIS: error= 1.46D-06 at cycle   5 NSaved=   5.
 NSaved= 5 IEnMin= 5 EnMin= -868.335180390373     IErMin= 5 ErrMin= 1.46D-06
 ErrMax= 1.46D-06  0.00D+00 EMaxC= 1.00D-01 BMatC= 3.97D-10 BMatP= 7.12D-09
 IDIUse=1 WtCom= 1.00D+00 WtEn= 0.00D+00
 Coeff-Com:  0.114D-01-0.207D+00-0.163D+00 0.557D+00 0.802D+00
 Coeff:      0.114D-01-0.207D+00-0.163D+00 0.557D+00 0.802D+00
 Gap=     0.413 Goal=   None    Shift=    0.000
 RMSDP=1.70D-07 MaxDP=3.79D-06 DE=-4.90D-08 OVMax= 2.06D-05

 Cycle  14  Pass 1  IDiag  1:
 RMSU=  7.86D-08    CP:  1.00D+00  1.06D+00  2.18D+00  2.23D+00  1.09D+00
 E= -868.335180391487     Delta-E=       -0.000000001114 Rises=F Damp=F
 DIIS: error= 3.79D-07 at cycle   6 NSaved=   6.
 NSaved= 6 IEnMin= 6 EnMin= -868.335180391487     IErMin= 6 ErrMin= 3.79D-07
 ErrMax= 3.79D-07  0.00D+00 EMaxC= 1.00D-01 BMatC= 3.84D-11 BMatP= 3.97D-10
 IDIUse=1 WtCom= 1.00D+00 WtEn= 0.00D+00
 Coeff-Com: -0.204D-02 0.722D-01 0.456D-01-0.227D+00-0.221D-01 0.113D+01
 Coeff:     -0.204D-02 0.722D-01 0.456D-01-0.227D+00-0.221D-01 0.113D+01
 Gap=     0.413 Goal=   None    Shift=    0.000
 RMSDP=5.26D-08 MaxDP=1.54D-06 DE=-1.11D-09 OVMax= 5.24D-06

 Cycle  15  Pass 1  IDiag  1:
 RMSU=  3.20D-08    CP:  1.00D+00  1.06D+00  2.18D+00  2.25D+00  1.22D+00
                    CP:  1.19D+00
 E= -868.335180391577     Delta-E=       -0.000000000090 Rises=F Damp=F
 DIIS: error= 1.33D-07 at cycle   7 NSaved=   7.
 NSaved= 7 IEnMin= 7 EnMin= -868.335180391577     IErMin= 7 ErrMin= 1.33D-07
 ErrMax= 1.33D-07  0.00D+00 EMaxC= 1.00D-01 BMatC= 8.23D-12 BMatP= 3.84D-11
 IDIUse=1 WtCom= 1.00D+00 WtEn= 0.00D+00
 Coeff-Com: -0.268D-02 0.600D-01 0.439D-01-0.172D+00-0.145D+00 0.359D+00
 Coeff-Com:  0.857D+00
 Coeff:     -0.268D-02 0.600D-01 0.439D-01-0.172D+00-0.145D+00 0.359D+00
 Coeff:      0.857D+00
 Gap=     0.413 Goal=   None    Shift=    0.000
 RMSDP=1.96D-08 MaxDP=5.77D-07 DE=-9.00D-11 OVMax= 1.16D-06

 Cycle  16  Pass 1  IDiag  1:
 RMSU=  1.07D-08    CP:  1.00D+00  1.06D+00  2.18D+00  2.25D+00  1.26D+00
                    CP:  1.34D+00  1.21D+00
 E= -868.335180391578     Delta-E=       -0.000000000002 Rises=F Damp=F
 DIIS: error= 4.32D-08 at cycle   8 NSaved=   8.
 NSaved= 8 IEnMin= 8 EnMin= -868.335180391578     IErMin= 8 ErrMin= 4.32D-08
 ErrMax= 4.32D-08  0.00D+00 EMaxC= 1.00D-01 BMatC= 4.99D-13 BMatP= 8.23D-12
 IDIUse=1 WtCom= 1.00D+00 WtEn= 0.00D+00
 Coeff-Com: -0.545D-03 0.103D-01 0.811D-02-0.286D-01-0.349D-01 0.144D-01
 Coeff-Com:  0.221D+00 0.810D+00
 Coeff:     -0.545D-03 0.103D-01 0.811D-02-0.286D-01-0.349D-01 0.144D-01
 Coeff:      0.221D+00 0.810D+00
 Gap=     0.413 Goal=   None    Shift=    0.000
 RMSDP=3.95D-09 MaxDP=1.38D-07 DE=-1.82D-12 OVMax= 2.70D-07

 SCF Done:  E(RHF) =  -868.335180392     A.U. after   16 cycles
            NFock= 16  Conv=0.40D-08     -V/T= 2.0031
 KE= 8.656892953763D+02 PE=-4.366792053885D+03 EE= 1.465897307945D+03
 Leave Link  502 at Thu May  6 17:49:34 2021, MaxMem=   524288000 cpu:              71.6 elap:              37.0
 (Enter /opt/gaussian/g16_legacy/l801.exe)
 ExpMin= 1.61D-01 ExpMax= 5.48D+03 ExpMxC= 8.25D+02 IAcc=3 IRadAn=         5 AccDes= 0.00D+00
 HarFok:  IExCor=  205 AccDes= 0.00D+00 IRadAn=         5 IDoV=-2 UseB2=F ITyADJ=14
 ICtDFT= 12500011 ScaDFX=  1.000000  1.000000  1.000000  1.000000
 Largest valence mixing into a core orbital is  1.95D-04
 Largest core mixing into a valence orbital is  4.00D-05
 Range of M.O.s used for correlation:    19   290
 NBasis=   290 NAE=    64 NBE=    64 NFC=    18 NFV=     0
 NROrb=    272 NOA=    46 NOB=    46 NVA=   226 NVB=   226
 Leave Link  801 at Thu May  6 17:49:35 2021, MaxMem=   524288000 cpu:               1.0 elap:               0.7
 (Enter /opt/gaussian/g16_legacy/l906.exe)
 FulOut=F Deriv=F AODrv=F NAtomX=    28
   MMem=          85  MDisk=          46 MDiskD=          46
  W3Min=     3014840 MinDsk=     3114491 NBas6D=         290
 NBas2D=       42681    NTT=       42195    LW2=     2000000
    MDV=   523929433 MDiskM=       24996 NBas2p=       29656
 Fully direct method using O(OVN) memory.
 IMap=   1   2   3   4   5   6   7   8   9  10  11  12  13  14  15  16  17  18  19  20
 IMap=  21  22  23  24  25  26  27  28  29  30  31  32  33  34  35  36  37  38  39  40
 IMap=  41  42  43  44  45  46
 JobTyp=1 Pass  1:  I=   1 to  46 NPSUse=  2 ParTrn=T ParDer=T DoDerP=F.
 Spin components of T(2) and E(2):
     alpha-alpha T2 =       0.1272378146D+00 E2=     -0.3599013033D+00
     alpha-beta  T2 =       0.6486285620D+00 E2=     -0.1882054459D+01
     beta-beta   T2 =       0.1272378146D+00 E2=     -0.3599013033D+00
 The integrals were generated   1 times.
 ANorm=    0.1379530424D+01
 E2 =    -0.2601857065D+01 EUMP2 =    -0.87093703745680D+03
 Leave Link  906 at Thu May  6 17:51:36 2021, MaxMem=   524288000 cpu:             242.1 elap:             121.4
 (Enter /opt/gaussian/g16_legacy/l601.exe)
 Copying SCF densities to generalized density rwf, IOpCl= 0 IROHF=0.

 **********************************************************************

            Population analysis using the SCF density.

 **********************************************************************

 Orbital symmetries:
       Occupied  (A) (A) (A) (A) (A) (A) (A) (A) (A) (A) (A) (A)
                 (A) (A) (A) (A) (A) (A) (A) (A) (A) (A) (A) (A)
                 (A) (A) (A) (A) (A) (A) (A) (A) (A) (A) (A) (A)
                 (A) (A) (A) (A) (A) (A) (A) (A) (A) (A) (A) (A)
                 (A) (A) (A) (A) (A) (A) (A) (A) (A) (A) (A) (A)
                 (A) (A) (A) (A)
       Virtual   (A) (A) (A) (A) (A) (A) (A) (A) (A) (A) (A) (A)
                 (A) (A) (A) (A) (A) (A) (A) (A) (A) (A) (A) (A)
                 (A) (A) (A) (A) (A) (A) (A) (A) (A) (A) (A) (A)
                 (A) (A) (A) (A) (A) (A) (A) (A) (A) (A) (A) (A)
                 (A) (A) (A) (A) (A) (A) (A) (A) (A) (A) (A) (A)
                 (A) (A) (A) (A) (A) (A) (A) (A) (A) (A) (A) (A)
                 (A) (A) (A) (A) (A) (A) (A) (A) (A) (A) (A) (A)
                 (A) (A) (A) (A) (A) (A) (A) (A) (A) (A) (A) (A)
                 (A) (A) (A) (A) (A) (A) (A) (A) (A) (A) (A) (A)
                 (A) (A) (A) (A) (A) (A) (A) (A) (A) (A) (A) (A)
                 (A) (A) (A) (A) (A) (A) (A) (A) (A) (A) (A) (A)
                 (A) (A) (A) (A) (A) (A) (A) (A) (A) (A) (A) (A)
                 (A) (A) (A) (A) (A) (A) (A) (A) (A) (A) (A) (A)
                 (A) (A) (A) (A) (A) (A) (A) (A) (A) (A) (A) (A)
                 (A) (A) (A) (A) (A) (A) (A) (A) (A) (A) (A) (A)
                 (A) (A) (A) (A) (A) (A) (A) (A) (A) (A) (A) (A)
                 (A) (A) (A) (A) (A) (A) (A) (A) (A) (A) (A) (A)
                 (A) (A) (A) (A) (A) (A) (A) (A) (A) (A) (A) (A)
                 (A) (A) (A) (A) (A) (A) (A) (A) (A) (A)
 The electronic state is 1-A.
 Alpha  occ. eigenvalues --  -20.60785 -20.60743 -20.60370 -20.60288 -15.85814
 Alpha  occ. eigenvalues --  -15.85393 -11.31439 -11.31125 -11.28147 -11.27977
 Alpha  occ. eigenvalues --  -11.27801 -11.27757 -11.27749 -11.27626 -11.27179
 Alpha  occ. eigenvalues --  -11.27043 -11.26966 -11.26831  -1.59821  -1.59412
 Alpha  occ. eigenvalues --   -1.39373  -1.38946  -1.19630  -1.19361  -1.08968
 Alpha  occ. eigenvalues --   -1.08693  -1.05096  -1.04831  -0.95768  -0.95454
 Alpha  occ. eigenvalues --   -0.86477  -0.86205  -0.82614  -0.82289  -0.77672
 Alpha  occ. eigenvalues --   -0.77220  -0.72030  -0.71589  -0.71144  -0.70775
 Alpha  occ. eigenvalues --   -0.70752  -0.70442  -0.65293  -0.65157  -0.64996
 Alpha  occ. eigenvalues --   -0.64832  -0.62618  -0.62006  -0.55569  -0.55320
 Alpha  occ. eigenvalues --   -0.53380  -0.53258  -0.53101  -0.52898  -0.48794
 Alpha  occ. eigenvalues --   -0.48779  -0.48409  -0.48324  -0.44717  -0.44263
 Alpha  occ. eigenvalues --   -0.37598  -0.37365  -0.36745  -0.36390
 Alpha virt. eigenvalues --    0.04885   0.05322   0.10893   0.11246   0.16344
 Alpha virt. eigenvalues --    0.16627   0.18619   0.22277   0.24857   0.26206
 Alpha virt. eigenvalues --    0.28108   0.29038   0.30881   0.31538   0.32503
 Alpha virt. eigenvalues --    0.33910   0.34258   0.35317   0.36621   0.39012
 Alpha virt. eigenvalues --    0.42713   0.43113   0.44166   0.45167   0.46645
 Alpha virt. eigenvalues --    0.47900   0.49375   0.49783   0.50921   0.51286
 Alpha virt. eigenvalues --    0.56616   0.57962   0.67060   0.67486   0.68662
 Alpha virt. eigenvalues --    0.68981   0.70042   0.70922   0.71262   0.72228
 Alpha virt. eigenvalues --    0.76716   0.78089   0.78350   0.78487   0.78632
 Alpha virt. eigenvalues --    0.78814   0.78990   0.79269   0.79931   0.80287
 Alpha virt. eigenvalues --    0.80579   0.81235   0.82021   0.83176   0.85634
 Alpha virt. eigenvalues --    0.85948   0.86790   0.87281   0.88318   0.89680
 Alpha virt. eigenvalues --    0.93532   0.94041   0.95941   0.97358   0.99483
 Alpha virt. eigenvalues --    1.00265   1.01338   1.03018   1.03536   1.04465
 Alpha virt. eigenvalues --    1.06579   1.06750   1.07591   1.08094   1.08380
 Alpha virt. eigenvalues --    1.10136   1.10795   1.13813   1.14121   1.15788
 Alpha virt. eigenvalues --    1.16551   1.16731   1.18105   1.19113   1.19899
 Alpha virt. eigenvalues --    1.22285   1.23149   1.23546   1.24293   1.24979
 Alpha virt. eigenvalues --    1.27639   1.28024   1.28856   1.29854   1.30430
 Alpha virt. eigenvalues --    1.30939   1.32001   1.32640   1.35213   1.36091
 Alpha virt. eigenvalues --    1.40079   1.40500   1.46486   1.46783   1.47106
 Alpha virt. eigenvalues --    1.47310   1.52552   1.52895   1.53322   1.53852
 Alpha virt. eigenvalues --    1.59615   1.61555   1.65393   1.65743   1.66591
 Alpha virt. eigenvalues --    1.66816   1.67003   1.67108   1.67727   1.68384
 Alpha virt. eigenvalues --    1.72355   1.72671   1.72978   1.73171   1.73436
 Alpha virt. eigenvalues --    1.73885   1.75196   1.75468   1.96951   1.97687
 Alpha virt. eigenvalues --    1.99223   1.99596   1.99715   2.00234   2.04232
 Alpha virt. eigenvalues --    2.04435   2.04686   2.05295   2.10146   2.10566
 Alpha virt. eigenvalues --    2.12179   2.12582   2.12985   2.13973   2.21367
 Alpha virt. eigenvalues --    2.21576   2.21673   2.22178   2.24776   2.25142
 Alpha virt. eigenvalues --    2.26723   2.27629   2.32567   2.32837   2.35823
 Alpha virt. eigenvalues --    2.36608   2.37491   2.37828   2.42560   2.42906
 Alpha virt. eigenvalues --    2.43356   2.43706   2.44428   2.44795   2.45483
 Alpha virt. eigenvalues --    2.45825   2.46693   2.46975   2.57827   2.58118
 Alpha virt. eigenvalues --    2.58309   2.58579   2.59236   2.59575   2.70366
 Alpha virt. eigenvalues --    2.70600   2.81158   2.81877   2.83443   2.83877
 Alpha virt. eigenvalues --    2.91404   2.91686   2.91737   2.92017   2.92262
 Alpha virt. eigenvalues --    2.92615   2.99586   2.99949   3.04516   3.04661
 Alpha virt. eigenvalues --    3.04886   3.05042   3.06807   3.07150   3.10499
 Alpha virt. eigenvalues --    3.10826   3.22909   3.23730   3.24184   3.25746
 Alpha virt. eigenvalues --    3.27353   3.29779   3.43173   3.43526   3.52850
 Alpha virt. eigenvalues --    3.53234   3.76682   3.76995   4.13214   4.13492
 Alpha virt. eigenvalues --    4.28521   4.29922   4.38022   4.38688   4.47711
 Alpha virt. eigenvalues --    4.47957   4.50562   4.50788   4.52814   4.53097
 Alpha virt. eigenvalues --    4.71694   4.72010   4.76419   4.76666   5.08625
 Alpha virt. eigenvalues --    5.08886
          Condensed to atoms (all electrons):
               1          2          3          4          5          6
     1  C    4.873677   0.543502  -0.045511  -0.029015  -0.044168   0.542737
     2  C    0.543502   4.933333   0.520992  -0.039446  -0.031136  -0.043495
     3  C   -0.045511   0.520992   4.920054   0.548493  -0.053098  -0.030286
     4  C   -0.029015  -0.039446   0.548493   4.818056   0.548565  -0.039123
     5  C   -0.044168  -0.031136  -0.053098   0.548565   4.941595   0.516329
     6  C    0.542737  -0.043495  -0.030286  -0.039123   0.516329   4.940984
     7  H    0.381552  -0.027798   0.002200   0.000193   0.002217  -0.028787
     8  H   -0.027875   0.382629  -0.027299   0.001557   0.000191   0.002367
     9  H    0.001944  -0.024352   0.367990  -0.019179   0.002704  -0.000074
    10  H    0.001837  -0.000080   0.002528  -0.016790   0.362322  -0.024729
    11  H   -0.027853   0.002375   0.000199   0.001581  -0.028884   0.382795
    12  N    0.000012   0.001517  -0.044461   0.242273  -0.043921   0.001533
    13  O   -0.000005  -0.000026   0.003721  -0.087258   0.003889   0.000797
    14  O   -0.000004   0.000791   0.004292  -0.088649   0.003740  -0.000028
    15  C    0.000000  -0.000000  -0.000000  -0.000000   0.000001   0.000002
    16  C   -0.000003   0.000000   0.000000  -0.000001  -0.000026  -0.000072
    17  C    0.000003  -0.000000   0.000000   0.000015  -0.000542  -0.000041
    18  C    0.000000   0.000000  -0.000000   0.000000   0.000026   0.000014
    19  C   -0.000000   0.000000  -0.000000   0.000000   0.000001  -0.000000
    20  C    0.000000   0.000000  -0.000000  -0.000000  -0.000000  -0.000000
    21  H   -0.000000  -0.000000   0.000000   0.000000   0.000000  -0.000000
    22  H    0.000003   0.000000  -0.000000  -0.000000  -0.000002   0.000184
    23  H    0.000000  -0.000000  -0.000001   0.000042   0.001277   0.000107
    24  H   -0.000000   0.000000  -0.000000   0.000000   0.000000  -0.000000
    25  H    0.000000  -0.000000   0.000000  -0.000000  -0.000000  -0.000000
    26  N   -0.000000   0.000000  -0.000000   0.000000   0.000013  -0.000000
    27  O    0.000000  -0.000000   0.000000   0.000000  -0.000000  -0.000000
    28  O    0.000000  -0.000000   0.000000  -0.000018  -0.000573   0.000001
               7          8          9         10         11         12
     1  C    0.381552  -0.027875   0.001944   0.001837  -0.027853   0.000012
     2  C   -0.027798   0.382629  -0.024352  -0.000080   0.002375   0.001517
     3  C    0.002200  -0.027299   0.367990   0.002528   0.000199  -0.044461
     4  C    0.000193   0.001557  -0.019179  -0.016790   0.001581   0.242273
     5  C    0.002217   0.000191   0.002704   0.362322  -0.028884  -0.043921
     6  C   -0.028787   0.002367  -0.000074  -0.024729   0.382795   0.001533
     7  H    0.449911  -0.001215  -0.000071  -0.000067  -0.001235   0.000002
     8  H   -0.001215   0.447605  -0.001108   0.000007  -0.000096  -0.000049
     9  H   -0.000071  -0.001108   0.391579  -0.000072   0.000007  -0.005439
    10  H   -0.000067   0.000007  -0.000072   0.379194  -0.001179  -0.005288
    11  H   -0.001235  -0.000096   0.000007  -0.001179   0.458765  -0.000050
    12  N    0.000002  -0.000049  -0.005439  -0.005288  -0.000050   5.743753
    13  O   -0.000000   0.000000   0.000047   0.008884   0.000000   0.311510
    14  O    0.000000  -0.000001   0.009307   0.000047   0.000000   0.312531
    15  C    0.000000  -0.000000   0.000000   0.000000   0.000000   0.000000
    16  C   -0.000000   0.000000   0.000000   0.000040  -0.000003  -0.000000
    17  C    0.000000   0.000000   0.000000  -0.000192   0.000128  -0.000001
    18  C   -0.000000  -0.000000   0.000000  -0.000065   0.000009   0.000000
    19  C   -0.000000  -0.000000  -0.000000  -0.000001   0.000000  -0.000000
    20  C    0.000000   0.000000  -0.000000  -0.000000   0.000000  -0.000000
    21  H    0.000000  -0.000000  -0.000000   0.000000  -0.000000   0.000000
    22  H   -0.000001  -0.000000   0.000000  -0.000007   0.000295  -0.000000
    23  H   -0.000000  -0.000000  -0.000000   0.000899   0.000142   0.000000
    24  H   -0.000000   0.000000  -0.000000  -0.000000  -0.000000   0.000000
    25  H    0.000000  -0.000000   0.000000   0.000000  -0.000000  -0.000000
    26  N   -0.000000   0.000000  -0.000000  -0.000035  -0.000000  -0.000000
    27  O    0.000000  -0.000000   0.000000   0.000002  -0.000000  -0.000000
    28  O    0.000000  -0.000000   0.000000   0.002263  -0.000004   0.000012
              13         14         15         16         17         18
     1  C   -0.000005  -0.000004   0.000000  -0.000003   0.000003   0.000000
     2  C   -0.000026   0.000791  -0.000000   0.000000  -0.000000   0.000000
     3  C    0.003721   0.004292  -0.000000   0.000000   0.000000  -0.000000
     4  C   -0.087258  -0.088649  -0.000000  -0.000001   0.000015   0.000000
     5  C    0.003889   0.003740   0.000001  -0.000026  -0.000542   0.000026
     6  C    0.000797  -0.000028   0.000002  -0.000072  -0.000041   0.000014
     7  H   -0.000000   0.000000   0.000000  -0.000000   0.000000  -0.000000
     8  H    0.000000  -0.000001  -0.000000   0.000000   0.000000  -0.000000
     9  H    0.000047   0.009307   0.000000   0.000000   0.000000   0.000000
    10  H    0.008884   0.000047   0.000000   0.000040  -0.000192  -0.000065
    11  H    0.000000   0.000000   0.000000  -0.000003   0.000128   0.000009
    12  N    0.311510   0.312531   0.000000  -0.000000  -0.000001   0.000000
    13  O    8.292837  -0.087571  -0.000000   0.000000   0.000006  -0.000002
    14  O   -0.087571   8.309187  -0.000000   0.000000   0.000000  -0.000000
    15  C   -0.000000  -0.000000   4.874815   0.542406  -0.044981  -0.029158
    16  C    0.000000   0.000000   0.542406   4.935356   0.520740  -0.038415
    17  C    0.000006   0.000000  -0.044981   0.520740   4.920167   0.548944
    18  C   -0.000002  -0.000000  -0.029158  -0.038415   0.548944   4.819010
    19  C   -0.000000  -0.000000  -0.045498  -0.030477  -0.053323   0.548411
    20  C    0.000000   0.000000   0.542997  -0.043652  -0.030172  -0.039876
    21  H   -0.000000  -0.000000   0.381311  -0.028205   0.002163   0.000217
    22  H    0.000000   0.000000  -0.027287   0.382474  -0.028792   0.001579
    23  H   -0.000027  -0.000000   0.001954  -0.026186   0.366909  -0.018530
    24  H   -0.000000  -0.000000   0.001926  -0.000061   0.002593  -0.019282
    25  H    0.000000   0.000000  -0.027671   0.002340   0.000211   0.001547
    26  N    0.000010   0.000000   0.000002   0.001529  -0.044352   0.242334
    27  O    0.000000   0.000000  -0.000004  -0.000026   0.003775  -0.088198
    28  O    0.000107   0.000000  -0.000009   0.000885   0.005601  -0.087900
              19         20         21         22         23         24
     1  C   -0.000000   0.000000  -0.000000   0.000003   0.000000  -0.000000
     2  C    0.000000   0.000000  -0.000000   0.000000  -0.000000   0.000000
     3  C   -0.000000  -0.000000   0.000000  -0.000000  -0.000001  -0.000000
     4  C    0.000000  -0.000000   0.000000  -0.000000   0.000042   0.000000
     5  C    0.000001  -0.000000   0.000000  -0.000002   0.001277   0.000000
     6  C   -0.000000  -0.000000  -0.000000   0.000184   0.000107  -0.000000
     7  H   -0.000000   0.000000   0.000000  -0.000001  -0.000000  -0.000000
     8  H   -0.000000   0.000000  -0.000000  -0.000000  -0.000000   0.000000
     9  H   -0.000000  -0.000000  -0.000000   0.000000  -0.000000  -0.000000
    10  H   -0.000001  -0.000000   0.000000  -0.000007   0.000899  -0.000000
    11  H    0.000000   0.000000  -0.000000   0.000295   0.000142  -0.000000
    12  N   -0.000000  -0.000000   0.000000  -0.000000   0.000000   0.000000
    13  O   -0.000000   0.000000  -0.000000   0.000000  -0.000027  -0.000000
    14  O   -0.000000   0.000000  -0.000000   0.000000  -0.000000  -0.000000
    15  C   -0.045498   0.542997   0.381311  -0.027287   0.001954   0.001926
    16  C   -0.030477  -0.043652  -0.028205   0.382474  -0.026186  -0.000061
    17  C   -0.053323  -0.030172   0.002163  -0.028792   0.366909   0.002593
    18  C    0.548411  -0.039876   0.000217   0.001579  -0.018530  -0.019282
    19  C    4.919073   0.521950   0.002162   0.000202   0.002695   0.368005
    20  C    0.521950   4.931630  -0.027731   0.002361  -0.000053  -0.023996
    21  H    0.002162  -0.027731   0.447136  -0.001214  -0.000073  -0.000071
    22  H    0.000202   0.002361  -0.001214   0.454758  -0.001093   0.000007
    23  H    0.002695  -0.000053  -0.000073  -0.001093   0.402058  -0.000077
    24  H    0.368005  -0.023996  -0.000071   0.000007  -0.000077   0.390333
    25  H   -0.027099   0.382410  -0.001190  -0.000095   0.000007  -0.001089
    26  N   -0.044373   0.001534   0.000002  -0.000050  -0.005395  -0.005414
    27  O    0.004066   0.000777   0.000000   0.000000   0.000022   0.009238
    28  O    0.003642  -0.000023  -0.000000   0.000001   0.006733   0.000048
              25         26         27         28
     1  C    0.000000  -0.000000   0.000000   0.000000
     2  C   -0.000000   0.000000  -0.000000  -0.000000
     3  C    0.000000  -0.000000   0.000000   0.000000
     4  C   -0.000000   0.000000   0.000000  -0.000018
     5  C   -0.000000   0.000013  -0.000000  -0.000573
     6  C   -0.000000  -0.000000  -0.000000   0.000001
     7  H    0.000000  -0.000000   0.000000   0.000000
     8  H   -0.000000   0.000000  -0.000000  -0.000000
     9  H    0.000000  -0.000000   0.000000   0.000000
    10  H    0.000000  -0.000035   0.000002   0.002263
    11  H   -0.000000  -0.000000  -0.000000  -0.000004
    12  N   -0.000000  -0.000000  -0.000000   0.000012
    13  O    0.000000   0.000010   0.000000   0.000107
    14  O    0.000000   0.000000   0.000000   0.000000
    15  C   -0.027671   0.000002  -0.000004  -0.000009
    16  C    0.002340   0.001529  -0.000026   0.000885
    17  C    0.000211  -0.044352   0.003775   0.005601
    18  C    0.001547   0.242334  -0.088198  -0.087900
    19  C   -0.027099  -0.044373   0.004066   0.003642
    20  C    0.382410   0.001534   0.000777  -0.000023
    21  H   -0.001190   0.000002   0.000000  -0.000000
    22  H   -0.000095  -0.000050   0.000000   0.000001
    23  H    0.000007  -0.005395   0.000022   0.006733
    24  H   -0.001089  -0.005414   0.009238   0.000048
    25  H    0.445882  -0.000049  -0.000001   0.000000
    26  N   -0.000049   5.740104   0.314826   0.310350
    27  O   -0.000001   0.314826   8.300437  -0.087299
    28  O    0.000000   0.310350  -0.087299   8.303955
 Mulliken charges:
               1
     1  C   -0.170833
     2  C   -0.218806
     3  C   -0.169814
     4  C    0.158703
     5  C   -0.180520
     6  C   -0.221215
     7  H    0.223100
     8  H    0.223285
     9  H    0.276716
    10  H    0.290483
    11  H    0.213007
    12  N    0.486066
    13  O   -0.446920
    14  O   -0.463643
    15  C   -0.170805
    16  C   -0.218643
    17  C   -0.168861
    18  C    0.159333
    19  C   -0.169436
    20  C   -0.218158
    21  H    0.225492
    22  H    0.216675
    23  H    0.268590
    24  H    0.277838
    25  H    0.224796
    26  N    0.488963
    27  O   -0.457616
    28  O   -0.457774
 Sum of Mulliken charges =  -0.00000
 Mulliken charges with hydrogens summed into heavy atoms:
               1
     1  C    0.052267
     2  C    0.004479
     3  C    0.106902
     4  C    0.158703
     5  C    0.109962
     6  C   -0.008208
    12  N    0.486066
    13  O   -0.446920
    14  O   -0.463643
    15  C    0.054687
    16  C   -0.001969
    17  C    0.099729
    18  C    0.159333
    19  C    0.108403
    20  C    0.006638
    26  N    0.488963
    27  O   -0.457616
    28  O   -0.457774
 Electronic spatial extent (au):  <R**2>=           6412.3571
 Charge=             -0.0000 electrons
 Dipole moment (field-independent basis, Debye):
    X=             -1.5745    Y=              9.7262    Z=              0.3189  Tot=              9.8579
 Quadrupole moment (field-independent basis, Debye-Ang):
   XX=            -90.3832   YY=           -110.2154   ZZ=           -103.6925
   XY=              3.3515   XZ=             -4.7826   YZ=             -0.4653
 Traceless Quadrupole moment (field-independent basis, Debye-Ang):
   XX=             11.0471   YY=             -8.7850   ZZ=             -2.2621
   XY=              3.3515   XZ=             -4.7826   YZ=             -0.4653
 Octapole moment (field-independent basis, Debye-Ang**2):
  XXX=            -44.0123  YYY=             61.8063  ZZZ=             -1.2256  XYY=              0.0699
  XXY=             85.6775  XXZ=             37.6066  XZZ=             -2.6944  YZZ=            -12.5928
  YYZ=             -1.6670  XYZ=              7.1419
 Hexadecapole moment (field-independent basis, Debye-Ang**3):
 XXXX=          -5804.3432 YYYY=          -1911.2796 ZZZZ=           -336.9368 XXXY=             76.7072
 XXXZ=            -91.0107 YYYX=             -4.9586 YYYZ=             -2.0070 ZZZX=             22.0074
 ZZZY=              0.7663 XXYY=          -1389.0238 XXZZ=          -1090.5182 YYZZ=           -384.5006
 XXYZ=            108.9496 YYXZ=            -29.9198 ZZXY=              5.1176
 N-N= 1.166870270172D+03 E-N=-4.366792059762D+03  KE= 8.656892953763D+02
 Leave Link  601 at Thu May  6 17:51:37 2021, MaxMem=   524288000 cpu:               0.3 elap:               0.3
 (Enter /opt/gaussian/g16_legacy/l9999.exe)
 1\1\GINC-TRUENO92\SP\RMP2-FC\6-31G(d)\C12H10N2O4\JRAMOS\06-May-2021\0\
 \#p 6-31g* mp2\\Input file generated by CHIRIPA (05-May-2021 14:57:21)
 \\0,1\C,0,1.914143,0.,0.\C,0,1.214143,1.211,0.\C,0,-0.183857,1.223,0.\
 C,0,-0.852857,0.,0.\C,0,-0.183857,-1.223,0.\C,0,1.214143,-1.211,0.\H,0
 ,3.000143,0.,0.\H,0,1.755143,2.153,0.\H,0,-0.750857,2.146,0.\H,0,-0.75
 0857,-2.146,0.\H,0,1.755143,-2.153,0.\N,0,-2.332857,0.,0.\O,0,-2.89885
 7,-1.091,0.\O,0,-2.898857,1.091,0.\C,0,1.658993,-5.087692,-4.365741\C,
 0,1.461847,-4.533705,-3.096586\C,0,0.183317,-4.487419,-2.532877\C,0,-0
 .880277,-5.006544,-3.269469\C,0,-0.715992,-5.564908,-4.536169\C,0,0.57
 1362,-5.600621,-5.080222\H,0,2.655612,-5.119541,-4.796009\H,0,2.304662
 ,-4.13461,-2.539423\H,0,0.002338,-4.0642,-1.552291\H,0,-1.575682,-5.95
 4871,-5.06747\H,0,0.721495,-6.031448,-6.066068\N,0,-2.23847,-4.96314,-
 2.6831\O,0,-3.15901,-5.427138,-3.35239\O,0,-2.356764,-4.465944,-1.5653
 16\\Version=EM64L-G16RevA.03\State=1-A\HF=-868.3351804\MP2=-870.937037
 5\RMSD=3.951e-09\PG=C01 [X(C12H10N2O4)]\\@


 LAWS OF PROGRAMMING DEFINITION:  A WORKING PROGRAM
                                  IS ONE THAT HAS
                                  ONLY UNOBSERVED
                                  BUGS.
 Job cpu time:       0 days  0 hours  5 minutes 23.7 seconds.
 Elapsed time:       0 days  0 hours  2 minutes 44.3 seconds.
 File lengths (MBytes):  RWF=     50 Int=      0 D2E=      0 Chk=      7 Scr=      1
 Normal termination of Gaussian 16 at Thu May  6 17:51:37 2021.
