 Entering Gaussian System, Link 0=/opt/gaussian/g16_legacy/g16
 Input=gaussian_00378_1_1.com
 Output=gaussian_00378_1_1.log
 Initial command:
 /opt/gaussian/g16_legacy/l1.exe "/scratch-local/jramos/2598931/Gau-7380.inp" -scrdir="/scratch-local/jramos/2598931/"
 Entering Link 1 = /opt/gaussian/g16_legacy/l1.exe PID=      7386.
  
 Copyright (c) 1988,1990,1992,1993,1995,1998,2003,2009,2016,
            Gaussian, Inc.  All Rights Reserved.
  
 This is part of the Gaussian(R) 16 program.  It is based on
 the Gaussian(R) 09 system (copyright 2009, Gaussian, Inc.),
 the Gaussian(R) 03 system (copyright 2003, Gaussian, Inc.),
 the Gaussian(R) 98 system (copyright 1998, Gaussian, Inc.),
 the Gaussian(R) 94 system (copyright 1995, Gaussian, Inc.),
 the Gaussian 92(TM) system (copyright 1992, Gaussian, Inc.),
 the Gaussian 90(TM) system (copyright 1990, Gaussian, Inc.),
 the Gaussian 88(TM) system (copyright 1988, Gaussian, Inc.),
 the Gaussian 86(TM) system (copyright 1986, Carnegie Mellon
 University), and the Gaussian 82(TM) system (copyright 1983,
 Carnegie Mellon University). Gaussian is a federally registered
 trademark of Gaussian, Inc.
  
 This software contains proprietary and confidential information,
 including trade secrets, belonging to Gaussian, Inc.
  
 This software is provided under written license and may be
 used, copied, transmitted, or stored only in accord with that
 written license.
  
 The following legend is applicable only to US Government
 contracts under FAR:
  
                    RESTRICTED RIGHTS LEGEND
  
 Use, reproduction and disclosure by the US Government is
 subject to restrictions as set forth in subparagraphs (a)
 and (c) of the Commercial Computer Software - Restricted
 Rights clause in FAR 52.227-19.
  
 Gaussian, Inc.
 340 Quinnipiac St., Bldg. 40, Wallingford CT 06492
  
  
 ---------------------------------------------------------------
 Warning -- This program may not be used in any manner that
 competes with the business of Gaussian, Inc. or will provide
 assistance to any competitor of Gaussian, Inc.  The licensee
 of this program is prohibited from giving any competitor of
 Gaussian, Inc. access to this program.  By using this program,
 the user acknowledges that Gaussian, Inc. is engaged in the
 business of creating and licensing software in the field of
 computational chemistry and represents and warrants to the
 licensee that it is not a competitor of Gaussian, Inc. and that
 it will not use this program in any manner prohibited above.
 ---------------------------------------------------------------
  

 Cite this work as:
 Gaussian 16, Revision A.03,
 M. J. Frisch, G. W. Trucks, H. B. Schlegel, G. E. Scuseria, 
 M. A. Robb, J. R. Cheeseman, G. Scalmani, V. Barone, 
 G. A. Petersson, H. Nakatsuji, X. Li, M. Caricato, A. V. Marenich, 
 J. Bloino, B. G. Janesko, R. Gomperts, B. Mennucci, H. P. Hratchian, 
 J. V. Ortiz, A. F. Izmaylov, J. L. Sonnenberg, D. Williams-Young, 
 F. Ding, F. Lipparini, F. Egidi, J. Goings, B. Peng, A. Petrone, 
 T. Henderson, D. Ranasinghe, V. G. Zakrzewski, J. Gao, N. Rega, 
 G. Zheng, W. Liang, M. Hada, M. Ehara, K. Toyota, R. Fukuda, 
 J. Hasegawa, M. Ishida, T. Nakajima, Y. Honda, O. Kitao, H. Nakai, 
 T. Vreven, K. Throssell, J. A. Montgomery, Jr., J. E. Peralta, 
 F. Ogliaro, M. J. Bearpark, J. J. Heyd, E. N. Brothers, K. N. Kudin, 
 V. N. Staroverov, T. A. Keith, R. Kobayashi, J. Normand, 
 K. Raghavachari, A. P. Rendell, J. C. Burant, S. S. Iyengar, 
 J. Tomasi, M. Cossi, J. M. Millam, M. Klene, C. Adamo, R. Cammi, 
 J. W. Ochterski, R. L. Martin, K. Morokuma, O. Farkas, 
 J. B. Foresman, and D. J. Fox, Gaussian, Inc., Wallingford CT, 2016.
 
 ******************************************
 Gaussian 16:  EM64L-G16RevA.03 25-Dec-2016
                 6-May-2021 
 ******************************************
 %chk=gaussian_00378_1_1.chk
 %nproc=2
 Will use up to    2 processors via shared memory.
 %mem=4000Mb
 -------------
 #p 6-31g* mp2
 -------------
 1/38=1,172=1/1;
 2/12=2,17=6,18=5,40=1/2;
 3/5=1,6=6,7=1,11=9,25=1,30=1/1,2,3;
 4//1;
 5/5=2,38=5/2;
 8/10=2/1;
 9/16=-3/6;
 6/7=2,8=2,9=2,10=2/1;
 99/5=1,9=1/99;
 Leave Link    1 at Thu May  6 14:49:53 2021, MaxMem=   524288000 cpu:               0.1 elap:               0.1
 (Enter /opt/gaussian/g16_legacy/l101.exe)
 ------------------------------------------------------
 Input file generated by CHIRIPA (05-May-2021 14:51:08)
 ------------------------------------------------------
 Symbolic Z-matrix:
 Charge =  0 Multiplicity = 1
 C                    -0.666    -0.374     0. 
 C                    -1.882     0.553     0. 
 C                    -3.207    -0.21      0. 
 H                    -0.713    -1.03     -0.88 
 H                    -0.713    -1.029     0.881 
 H                    -1.832     1.207    -0.88 
 H                    -1.832     1.207     0.88 
 H                    -3.283    -0.85      0.885 
 H                    -3.283    -0.85     -0.885 
 H                    -4.063     0.472     0. 
 C                     0.666     0.374     0. 
 C                     1.882    -0.553     0. 
 C                     3.207     0.21      0. 
 H                     0.713     1.029    -0.881 
 H                     0.713     1.03      0.88 
 H                     1.832    -1.207    -0.88 
 H                     1.832    -1.207     0.88 
 H                     3.283     0.85      0.885 
 H                     3.283     0.85     -0.885 
 H                     4.063    -0.472     0. 
 C                    -0.25561  -1.30834   4.89297 
 C                    -0.83983  -2.42647   4.02897 
 C                    -2.18384  -2.93571   4.55061 
 H                    -0.13659  -1.67321   5.92236 
 H                    -0.97193  -0.47627   4.93713 
 H                    -0.12203  -3.25561   3.98532 
 H                    -0.9573   -2.05896   3.00148 
 H                    -2.91882  -2.12474   4.5778 
 H                    -2.07881  -3.3282    5.56723 
 H                    -2.58335  -3.73458   3.91811 
 C                     1.0879   -0.7888    4.38428 
 C                     1.67212   0.32933   5.24827 
 C                     3.01613   0.83857   4.72664 
 H                     1.80422  -1.62087   4.34012 
 H                     0.96888  -0.42393   3.35489 
 H                     1.78959  -0.03818   6.27577 
 H                     0.95432   1.15847   5.29193 
 H                     2.9111    1.23106   3.71002 
 H                     3.75111   0.02761   4.69945 
 H                     3.41563   1.63745   5.35914 
 
 ITRead=  0  0  0  0  0  0  0  0  0  0  0  0  0  0  0  0  0  0  0  0
 ITRead=  0  0  0  0  0  0  0  0  0  0  0  0  0  0  0  0  0  0  0  0
 MicOpt= -1 -1 -1 -1 -1 -1 -1 -1 -1 -1 -1 -1 -1 -1 -1 -1 -1 -1 -1 -1
 MicOpt= -1 -1 -1 -1 -1 -1 -1 -1 -1 -1 -1 -1 -1 -1 -1 -1 -1 -1 -1 -1
 NAtoms=     40 NQM=       40 NQMF=       0 NMMI=      0 NMMIF=      0
                NMic=       0 NMicF=      0.
                    Isotopes and Nuclear Properties:
 (Nuclear quadrupole moments (NQMom) in fm**2, nuclear magnetic moments (NMagM)
  in nuclear magnetons)

  Atom         1           2           3           4           5           6           7           8           9          10
 IAtWgt=          12          12          12           1           1           1           1           1           1           1
 AtmWgt=  12.0000000  12.0000000  12.0000000   1.0078250   1.0078250   1.0078250   1.0078250   1.0078250   1.0078250   1.0078250
 NucSpn=           0           0           0           1           1           1           1           1           1           1
 AtZEff=  -0.0000000  -0.0000000  -0.0000000  -0.0000000  -0.0000000  -0.0000000  -0.0000000  -0.0000000  -0.0000000  -0.0000000
 NQMom=    0.0000000   0.0000000   0.0000000   0.0000000   0.0000000   0.0000000   0.0000000   0.0000000   0.0000000   0.0000000
 NMagM=    0.0000000   0.0000000   0.0000000   2.7928460   2.7928460   2.7928460   2.7928460   2.7928460   2.7928460   2.7928460
 AtZNuc=   6.0000000   6.0000000   6.0000000   1.0000000   1.0000000   1.0000000   1.0000000   1.0000000   1.0000000   1.0000000

  Atom        11          12          13          14          15          16          17          18          19          20
 IAtWgt=          12          12          12           1           1           1           1           1           1           1
 AtmWgt=  12.0000000  12.0000000  12.0000000   1.0078250   1.0078250   1.0078250   1.0078250   1.0078250   1.0078250   1.0078250
 NucSpn=           0           0           0           1           1           1           1           1           1           1
 AtZEff=  -0.0000000  -0.0000000  -0.0000000  -0.0000000  -0.0000000  -0.0000000  -0.0000000  -0.0000000  -0.0000000  -0.0000000
 NQMom=    0.0000000   0.0000000   0.0000000   0.0000000   0.0000000   0.0000000   0.0000000   0.0000000   0.0000000   0.0000000
 NMagM=    0.0000000   0.0000000   0.0000000   2.7928460   2.7928460   2.7928460   2.7928460   2.7928460   2.7928460   2.7928460
 AtZNuc=   6.0000000   6.0000000   6.0000000   1.0000000   1.0000000   1.0000000   1.0000000   1.0000000   1.0000000   1.0000000

  Atom        21          22          23          24          25          26          27          28          29          30
 IAtWgt=          12          12          12           1           1           1           1           1           1           1
 AtmWgt=  12.0000000  12.0000000  12.0000000   1.0078250   1.0078250   1.0078250   1.0078250   1.0078250   1.0078250   1.0078250
 NucSpn=           0           0           0           1           1           1           1           1           1           1
 AtZEff=  -0.0000000  -0.0000000  -0.0000000  -0.0000000  -0.0000000  -0.0000000  -0.0000000  -0.0000000  -0.0000000  -0.0000000
 NQMom=    0.0000000   0.0000000   0.0000000   0.0000000   0.0000000   0.0000000   0.0000000   0.0000000   0.0000000   0.0000000
 NMagM=    0.0000000   0.0000000   0.0000000   2.7928460   2.7928460   2.7928460   2.7928460   2.7928460   2.7928460   2.7928460
 AtZNuc=   6.0000000   6.0000000   6.0000000   1.0000000   1.0000000   1.0000000   1.0000000   1.0000000   1.0000000   1.0000000

  Atom        31          32          33          34          35          36          37          38          39          40
 IAtWgt=          12          12          12           1           1           1           1           1           1           1
 AtmWgt=  12.0000000  12.0000000  12.0000000   1.0078250   1.0078250   1.0078250   1.0078250   1.0078250   1.0078250   1.0078250
 NucSpn=           0           0           0           1           1           1           1           1           1           1
 AtZEff=  -0.0000000  -0.0000000  -0.0000000  -0.0000000  -0.0000000  -0.0000000  -0.0000000  -0.0000000  -0.0000000  -0.0000000
 NQMom=    0.0000000   0.0000000   0.0000000   0.0000000   0.0000000   0.0000000   0.0000000   0.0000000   0.0000000   0.0000000
 NMagM=    0.0000000   0.0000000   0.0000000   2.7928460   2.7928460   2.7928460   2.7928460   2.7928460   2.7928460   2.7928460
 AtZNuc=   6.0000000   6.0000000   6.0000000   1.0000000   1.0000000   1.0000000   1.0000000   1.0000000   1.0000000   1.0000000
 Leave Link  101 at Thu May  6 14:49:53 2021, MaxMem=   524288000 cpu:               0.3 elap:               0.2
 (Enter /opt/gaussian/g16_legacy/l202.exe)
                          Input orientation:                          
 ---------------------------------------------------------------------
 Center     Atomic      Atomic             Coordinates (Angstroms)
 Number     Number       Type             X           Y           Z
 ---------------------------------------------------------------------
      1          6           0       -0.666000   -0.374000    0.000000
      2          6           0       -1.882000    0.553000    0.000000
      3          6           0       -3.207000   -0.210000    0.000000
      4          1           0       -0.713000   -1.030000   -0.880000
      5          1           0       -0.713000   -1.029000    0.881000
      6          1           0       -1.832000    1.207000   -0.880000
      7          1           0       -1.832000    1.207000    0.880000
      8          1           0       -3.283000   -0.850000    0.885000
      9          1           0       -3.283000   -0.850000   -0.885000
     10          1           0       -4.063000    0.472000    0.000000
     11          6           0        0.666000    0.374000    0.000000
     12          6           0        1.882000   -0.553000    0.000000
     13          6           0        3.207000    0.210000    0.000000
     14          1           0        0.713000    1.029000   -0.881000
     15          1           0        0.713000    1.030000    0.880000
     16          1           0        1.832000   -1.207000   -0.880000
     17          1           0        1.832000   -1.207000    0.880000
     18          1           0        3.283000    0.850000    0.885000
     19          1           0        3.283000    0.850000   -0.885000
     20          1           0        4.063000   -0.472000    0.000000
     21          6           0       -0.255613   -1.308343    4.892966
     22          6           0       -0.839827   -2.426465    4.028973
     23          6           0       -2.183836   -2.935710    4.550607
     24          1           0       -0.136589   -1.673209    5.922360
     25          1           0       -0.971926   -0.476273    4.937130
     26          1           0       -0.122033   -3.255611    3.985321
     27          1           0       -0.957295   -2.058955    3.001475
     28          1           0       -2.918816   -2.124744    4.577795
     29          1           0       -2.078808   -3.328199    5.567231
     30          1           0       -2.583345   -3.734583    3.918109
     31          6           0        1.087903   -0.788796    4.384280
     32          6           0        1.672116    0.329326    5.248273
     33          6           0        3.016126    0.838572    4.726640
     34          1           0        1.804216   -1.620866    4.340117
     35          1           0        0.968879   -0.423930    3.354887
     36          1           0        1.789585   -0.038183    6.275772
     37          1           0        0.954323    1.158472    5.291926
     38          1           0        2.911098    1.231061    3.710016
     39          1           0        3.751105    0.027606    4.699452
     40          1           0        3.415635    1.637445    5.359138
 ---------------------------------------------------------------------
                    Distance matrix (angstroms):
                    1          2          3          4          5
     1  C    0.000000
     2  C    1.529047   0.000000
     3  C    2.546287   1.528985   0.000000
     4  H    1.098610   2.155655   2.768905   0.000000
     5  H    1.098815   2.155330   2.768927   1.761000   0.000000
     6  H    2.152561   1.097550   2.161692   2.501266   3.058264
     7  H    2.152561   1.097550   2.161692   3.058420   2.500372
     8  H    2.803300   2.171275   1.094806   3.122903   2.576229
     9  H    2.803300   2.171275   1.094806   2.576301   3.123411
    10  H    3.500761   2.182504   1.094468   3.775302   3.775137
    11  C    1.527654   2.554280   3.916782   2.155750   2.155507
    12  C    2.554280   3.923128   5.100546   2.781358   2.781504
    13  C    3.916782   5.100546   6.427736   4.204569   4.204484
    14  H    2.155507   2.781504   4.204484   2.504587   3.061615
    15  H    2.155750   2.781358   4.204569   3.061809   2.504587
    16  H    2.776381   4.203070   5.211519   2.551148   3.099973
    17  H    2.776381   4.203070   5.211519   3.099347   2.551217
    18  H    4.228002   5.248682   6.635279   4.755801   4.415730
    19  H    4.228002   5.248682   6.635279   4.416157   4.755777
    20  H    4.730015   6.032715   7.274720   4.888347   4.888413
    21  C    4.998253   5.481865   5.818776   5.797742   4.047605
    22  C    4.524981   5.118199   5.171929   5.105312   3.446553
    23  C    5.438217   5.741971   5.402257   5.940251   4.389182
    24  H    6.086261   6.563293   6.829550   6.856972   5.114936
    25  H    4.947656   5.124733   5.426022   5.849159   4.101797
    26  H    4.947966   5.786690   5.888595   5.382744   3.865727
    27  H    3.454385   4.084879   4.181944   4.022969   2.370000
    28  H    5.394116   5.403842   4.970463   5.987622   4.442136
    29  H    6.458899   6.789440   6.479972   6.979537   5.395601
    30  H    5.506479   5.850370   5.306902   5.816770   4.476874
    31  C    4.740268   5.462843   6.164666   5.569028   3.946381
    32  C    5.788421   6.342408   7.186168   6.715078   5.158188
    33  C    6.113060   6.812805   7.884664   6.988015   5.673020
    34  H    5.147160   6.095121   6.777864   5.825386   4.318816
    35  H    3.732370   4.509675   5.360877   4.596771   3.052039
    36  H    6.747443   7.294885   8.023758   7.645372   6.028948
    37  H    5.742682   6.034551   6.869775   6.757370   5.198199
    38  H    5.397784   6.098998   7.298767   6.270146   5.123016
    39  H    6.461962   7.354778   8.399794   7.223368   5.968687
    40  H    7.030364   7.613233   8.717380   7.942779   6.649006
                    6          7          8          9         10
     6  H    0.000000
     7  H    1.760000   0.000000
     8  H    3.074390   2.517275   0.000000
     9  H    2.517275   3.074390   1.770000   0.000000
    10  H    2.508383   2.508383   1.771810   1.771810   0.000000
    11  C    2.776381   2.776381   4.228002   4.228002   4.730015
    12  C    4.203070   4.203070   5.248682   5.248682   6.032715
    13  C    5.211519   5.211519   6.635279   6.635279   7.274720
    14  H    2.551217   3.099973   4.755777   4.415730   4.888413
    15  H    3.099347   2.551148   4.416157   4.755801   4.888347
    16  H    4.387743   4.727567   5.422721   5.127446   6.192291
    17  H    4.727567   4.387743   5.127446   5.422721   6.192291
    18  H    5.422721   5.127446   6.782504   7.009654   7.408767
    19  H    5.127446   5.422721   7.009654   6.782504   7.408767
    20  H    6.192291   6.192291   7.408767   7.408767   8.180649
    21  C    6.491462   4.991577   5.043703   6.539116   6.450344
    22  C    6.187446   4.909430   4.282394   5.709769   5.917987
    23  C    6.839395   5.546097   4.358328   5.924877   5.987635
    24  H    7.579058   6.049415   5.996046   7.544384   7.422464
    25  H    6.116546   4.475873   4.679796   6.275184   5.901628
    26  H    6.819841   5.699290   5.038915   6.284799   6.731203
    27  H    5.147564   3.991519   3.368968   4.687767   5.005995
    28  H    6.486078   5.094642   3.923562   5.621364   5.385949
    29  H    7.886427   6.526797   5.432756   7.015899   7.026563
    30  H    6.928608   5.849262   4.243829   5.646255   5.936017
    31  C    6.342056   4.978857   5.599420   6.846448   6.880648
    32  C    7.113710   5.668417   6.706872   7.972517   7.775364
    33  C    7.421218   6.199734   7.568914   8.603532   8.519949
    34  H    6.961933   5.761189   6.197728   7.333202   7.592162
    35  H    5.332834   4.077980   4.935621   6.019689   6.113736
    36  H    8.116122   6.616700   7.446515   8.812878   8.596415
    37  H    6.771899   5.218337   6.435050   7.755210   7.324565
    38  H    6.600440   5.523273   7.118875   7.988231   7.935895
    39  H    7.980747   6.866604   8.049775   9.024130   9.129215
    40  H    8.163933   6.912715   8.430718   9.489381   9.274082
                   11         12         13         14         15
    11  C    0.000000
    12  C    1.529047   0.000000
    13  C    2.546287   1.528985   0.000000
    14  H    1.098815   2.155330   2.768927   0.000000
    15  H    1.098610   2.155655   2.768905   1.761000   0.000000
    16  H    2.152561   1.097550   2.161692   2.500372   3.058420
    17  H    2.152561   1.097550   2.161692   3.058264   2.501266
    18  H    2.803300   2.171275   1.094806   3.123411   2.576301
    19  H    2.803300   2.171275   1.094806   2.576229   3.122903
    20  H    3.500761   2.182504   1.094468   3.775137   3.775302
    21  C    5.255546   5.392685   6.183540   6.303972   4.744466
    22  C    5.132518   5.210646   6.289704   6.201560   4.926911
    23  C    6.307438   6.551057   7.724288   7.322086   6.131221
    24  H    6.317402   6.356408   7.056941   7.369494   5.783990
    25  H    5.270770   5.703160   6.504587   6.241431   4.644151
    26  H    5.447739   5.215653   6.243052   6.537297   5.357869
    27  H    4.190848   4.397539   5.612340   5.234402   4.102705
    28  H    6.328573   6.817215   7.995803   7.275619   6.067634
    29  H    7.227331   7.374537   8.452969   8.267954   6.982709
    30  H    6.541428   6.738943   8.027416   7.522570   6.541961
    31  C    4.555437   4.461849   4.970923   5.582840   3.965924
    32  C    5.344028   5.326060   5.469413   6.243191   4.526882
    33  C    5.299061   5.056070   4.772071   6.065169   4.487502
    34  H    4.910361   4.470235   4.914925   5.955888   4.493356
    35  H    3.461747   3.479327   4.082440   4.485445   2.881745
    36  H    6.388869   6.297531   6.438631   7.315552   5.604856
    37  H    5.357519   5.638635   5.829119   6.178998   4.420388
    38  H    4.420321   4.243364   3.859319   5.094104   3.589018
    39  H    5.632292   5.090727   4.734360   6.432287   4.982278
    40  H    6.154441   5.989194   5.549909   6.827427   5.266489
                   16         17         18         19         20
    16  H    0.000000
    17  H    1.760000   0.000000
    18  H    3.074390   2.517275   0.000000
    19  H    2.517275   3.074390   1.770000   0.000000
    20  H    2.508383   2.508383   1.771810   1.771810   0.000000
    21  C    6.139669   4.524632   5.765763   7.110915   6.579590
    22  C    5.720469   4.306017   6.133310   7.202781   6.640050
    23  C    6.971863   5.708654   7.593061   8.588581   8.111772
    24  H    7.096816   5.433055   6.590536   8.024981   7.358926
    25  H    6.498843   4.985606   6.023550   7.332162   7.051649
    26  H    5.629067   4.202151   6.169464   7.222902   6.414497
    27  H    4.855084   3.606473   5.560718   6.445681   6.060581
    28  H    7.293835   6.089844   7.806943   8.783721   8.510789
    29  H    7.833307   6.462510   8.254067   9.372172   8.767767
    30  H    6.993268   5.925711   8.039413   8.860150   8.376749
    31  C    5.333031   3.606737   4.443992   5.938806   5.307869
    32  C    6.319936   4.633322   4.680192   6.362632   5.822613
    33  C    6.084483   4.514771   3.850916   5.617994   5.015443
    34  H    5.236571   3.484891   4.497757   5.966056   5.025795
    35  H    4.392317   2.735552   3.616406   4.995467   4.564117
    36  H    7.250724   5.521077   5.663884   7.368569   6.688941
    37  H    6.667717   5.082407   4.993885   6.608503   6.350338
    38  H    5.308186   3.888134   2.874758   4.625764   4.241640
    39  H    6.028059   4.449205   3.930076   5.664058   4.736215
    40  H    7.037443   5.537278   4.544840   6.294992   5.795619
                   21         22         23         24         25
    21  C    0.000000
    22  C    1.529048   0.000000
    23  C    2.546287   1.528984   0.000000
    24  H    1.098611   2.155656   2.768905   0.000000
    25  H    1.098815   2.155330   2.768927   1.761000   0.000000
    26  H    2.152560   1.097550   2.161693   2.501265   3.058264
    27  H    2.152560   1.097549   2.161692   3.058419   2.500371
    28  H    2.803300   2.171275   1.094806   3.122903   2.576230
    29  H    2.803300   2.171275   1.094807   2.576300   3.123411
    30  H    3.500760   2.182503   1.094468   3.775301   3.775137
    31  C    1.527654   2.554280   3.916782   2.155750   2.155507
    32  C    2.554279   3.923128   5.100545   2.781358   2.781503
    33  C    3.916782   5.100547   6.427737   4.204569   4.204484
    34  H    2.155506   2.781504   4.204483   2.504587   3.061614
    35  H    2.155749   2.781359   4.204569   3.061809   2.504587
    36  H    2.776381   4.203071   5.211519   2.551148   3.099972
    37  H    2.776381   4.203070   5.211518   3.099347   2.551217
    38  H    4.228002   5.248683   6.635279   4.755801   4.415730
    39  H    4.228001   5.248682   6.635279   4.416157   4.755776
    40  H    4.730015   6.032716   7.274720   4.888348   4.888413
                   26         27         28         29         30
    26  H    0.000000
    27  H    1.760000   0.000000
    28  H    3.074391   2.517276   0.000000
    29  H    2.517276   3.074390   1.770000   0.000000
    30  H    2.508384   2.508383   1.771809   1.771810   0.000000
    31  C    2.776381   2.776380   4.228002   4.228002   4.730015
    32  C    4.203069   4.203069   5.248681   5.248681   6.032714
    33  C    5.211519   5.211519   6.635279   6.635279   7.274720
    34  H    2.551217   3.099972   4.755777   4.415730   4.888413
    35  H    3.099347   2.551147   4.416157   4.755801   4.888347
    36  H    4.387743   4.727567   5.422721   5.127446   6.192291
    37  H    4.727567   4.387743   5.127445   5.422720   6.192290
    38  H    5.422721   5.127446   6.782504   7.009655   7.408767
    39  H    5.127445   5.422720   7.009655   6.782503   7.408766
    40  H    6.192291   6.192291   7.408767   7.408767   8.180649
                   31         32         33         34         35
    31  C    0.000000
    32  C    1.529047   0.000000
    33  C    2.546288   1.528985   0.000000
    34  H    1.098815   2.155330   2.768928   0.000000
    35  H    1.098610   2.155655   2.768906   1.761000   0.000000
    36  H    2.152561   1.097550   2.161692   2.500372   3.058419
    37  H    2.152561   1.097550   2.161693   3.058264   2.501265
    38  H    2.803301   2.171275   1.094807   3.123412   2.576301
    39  H    2.803300   2.171275   1.094806   2.576229   3.122903
    40  H    3.500761   2.182504   1.094468   3.775138   3.775302
                   36         37         38         39         40
    36  H    0.000000
    37  H    1.760000   0.000000
    38  H    3.074390   2.517276   0.000000
    39  H    2.517275   3.074390   1.770000   0.000000
    40  H    2.508383   2.508384   1.771810   1.771809   0.000000
 Stoichiometry    C12H28
 Framework group  C1[X(C12H28)]
 Deg. of freedom   114
 Full point group                 C1      NOp   1
 Largest Abelian subgroup         C1      NOp   1
 Largest concise Abelian subgroup C1      NOp   1
                         Standard orientation:                         
 ---------------------------------------------------------------------
 Center     Atomic      Atomic             Coordinates (Angstroms)
 Number     Number       Type             X           Y           Z
 ---------------------------------------------------------------------
      1          6           0       -2.454046    0.352608    0.138277
      2          6           0       -2.904710    1.114466   -1.108502
      3          6           0       -3.100650    2.608590   -0.849664
      4          1           0       -3.197115    0.493807    0.935056
      5          1           0       -1.514725    0.788237    0.506107
      6          1           0       -3.842178    0.676644   -1.474673
      7          1           0       -2.160577    0.971280   -1.902467
      8          1           0       -2.167072    3.065719   -0.506057
      9          1           0       -3.858227    2.769408   -0.075833
     10          1           0       -3.422794    3.133873   -1.754187
     11          6           0       -2.253903   -1.142282   -0.104569
     12          6           0       -1.803239   -1.904140    1.142210
     13          6           0       -1.607298   -3.398263    0.883372
     14          1           0       -3.193224   -1.577911   -0.472399
     15          1           0       -1.510834   -1.283481   -0.901348
     16          1           0       -2.547372   -1.760954    1.936175
     17          1           0       -0.865771   -1.466317    1.508381
     18          1           0       -0.849721   -3.559082    0.109541
     19          1           0       -2.540876   -3.855392    0.539765
     20          1           0       -1.285154   -3.923547    1.787895
     21          6           0        2.476500    1.147337   -0.063347
     22          6           0        1.694709    1.954207    0.973837
     23          6           0        1.950298    3.457968    0.868143
     24          1           0        3.549778    1.347747    0.058535
     25          1           0        2.205620    1.496422   -1.069408
     26          1           0        1.965953    1.602762    1.977595
     27          1           0        0.623182    1.751706    0.849596
     28          1           0        1.662161    3.829138   -0.120700
     29          1           0        3.012562    3.679348    1.013709
     30          1           0        1.381571    4.015591    1.618787
     31          6           0        2.231448   -0.357664    0.029640
     32          6           0        3.013238   -1.164533   -1.007545
     33          6           0        2.757651   -2.668295   -0.901852
     34          1           0        2.502329   -0.706749    1.035700
     35          1           0        1.158171   -0.558074   -0.092243
     36          1           0        4.084767   -0.962032   -0.883304
     37          1           0        2.741996   -0.813089   -2.011303
     38          1           0        1.695387   -2.889675   -1.047417
     39          1           0        3.045788   -3.039464    0.086991
     40          1           0        3.326378   -3.225918   -1.652495
 ---------------------------------------------------------------------
 Rotational constants (GHZ):           0.5597698           0.4399138           0.2825590
 Leave Link  202 at Thu May  6 14:49:53 2021, MaxMem=   524288000 cpu:               0.1 elap:               0.0
 (Enter /opt/gaussian/g16_legacy/l301.exe)
 Standard basis: 6-31G(d) (6D, 7F)
 Ernie: Thresh=  0.10000D-02 Tol=  0.10000D-05 Strict=F.
 There are   236 symmetry adapted cartesian basis functions of A   symmetry.
 There are   236 symmetry adapted basis functions of A   symmetry.
   236 basis functions,   448 primitive gaussians,   236 cartesian basis functions
    50 alpha electrons       50 beta electrons
       nuclear repulsion energy       724.9953350766 Hartrees.
 IExCor=    0 DFT=F Ex=HF Corr=None ExCW=0 ScaHFX=  1.000000
 ScaDFX=  1.000000  1.000000  1.000000  1.000000 ScalE2=  1.000000  1.000000
 IRadAn=      5 IRanWt=     -1 IRanGd=            0 ICorTp=0 IEmpDi=  4
 NAtoms=   40 NActive=   40 NUniq=   40 SFac= 1.00D+00 NAtFMM=   60 NAOKFM=F Big=F
 Integral buffers will be    131072 words long.
 Raffenetti 1 integral format.
 Two-electron integral symmetry is turned on.
 Leave Link  301 at Thu May  6 14:49:53 2021, MaxMem=   524288000 cpu:               0.2 elap:               0.1
 (Enter /opt/gaussian/g16_legacy/l302.exe)
 NPDir=0 NMtPBC=     1 NCelOv=     1 NCel=       1 NClECP=     1 NCelD=      1
         NCelK=      1 NCelE2=     1 NClLst=     1 CellRange=     0.0.
 One-electron integrals computed using PRISM.
 One-electron integral symmetry used in STVInt
 NBasis=   236 RedAO= T EigKep=  3.14D-03  NBF=   236
 NBsUse=   236 1.00D-06 EigRej= -1.00D+00 NBFU=   236
 Leave Link  302 at Thu May  6 14:49:54 2021, MaxMem=   524288000 cpu:               0.5 elap:               0.3
 (Enter /opt/gaussian/g16_legacy/l303.exe)
 DipDrv:  MaxL=1.
 Leave Link  303 at Thu May  6 14:49:54 2021, MaxMem=   524288000 cpu:               0.1 elap:               0.1
 (Enter /opt/gaussian/g16_legacy/l401.exe)
 ExpMin= 1.61D-01 ExpMax= 3.05D+03 ExpMxC= 4.57D+02 IAcc=3 IRadAn=         5 AccDes= 0.00D+00
 Harris functional with IExCor=  205 and IRadAn=       5 diagonalized for initial guess.
 HarFok:  IExCor=  205 AccDes= 0.00D+00 IRadAn=         5 IDoV= 1 UseB2=F ITyADJ=14
 ICtDFT=  3500011 ScaDFX=  1.000000  1.000000  1.000000  1.000000
 FoFCou: FMM=F IPFlag=           0 FMFlag=      100000 FMFlg1=           0
         NFxFlg=           0 DoJE=T BraDBF=F KetDBF=T FulRan=T
         wScrn=  0.000000 ICntrl=       500 IOpCl=  0 I1Cent=   200000004 NGrid=           0
         NMat0=    1 NMatS0=      1 NMatT0=    0 NMatD0=    1 NMtDS0=    0 NMtDT0=    0
 Petite list used in FoFCou.
 Harris En= -472.098592463188    
 JPrj=0 DoOrth=F DoCkMO=F.
 Leave Link  401 at Thu May  6 14:50:03 2021, MaxMem=   524288000 cpu:              17.7 elap:               8.9
 (Enter /opt/gaussian/g16_legacy/l502.exe)
 Keep R1 ints in memory in canonical form, NReq=397720540.
 FoFCou: FMM=F IPFlag=           0 FMFlag=           0 FMFlg1=           0
         NFxFlg=           0 DoJE=F BraDBF=F KetDBF=F FulRan=T
         wScrn=  0.000000 ICntrl=       600 IOpCl=  0 I1Cent=           0 NGrid=           0
         NMat0=    1 NMatS0=  27966 NMatT0=    0 NMatD0=    1 NMtDS0=    0 NMtDT0=    0
 Symmetry not used in FoFCou.
 Two-electron integral symmetry not used.
 Closed shell SCF:
 Using DIIS extrapolation, IDIIS=  1040.
 NGot=   524288000 LenX=   133109463 LenY=   133053326
 Requested convergence on RMS density matrix=1.00D-08 within 128 cycles.
 Requested convergence on MAX density matrix=1.00D-06.
 Requested convergence on             energy=1.00D-06.
 No special actions if energy rises.

 Cycle   1  Pass 1  IDiag  1:
 E= -469.873191951980    
 DIIS: error= 5.87D-02 at cycle   1 NSaved=   1.
 NSaved= 1 IEnMin= 1 EnMin= -469.873191951980     IErMin= 1 ErrMin= 5.87D-02
 ErrMax= 5.87D-02  0.00D+00 EMaxC= 1.00D-01 BMatC= 1.07D+00 BMatP= 1.07D+00
 IDIUse=3 WtCom= 4.13D-01 WtEn= 5.87D-01
 Coeff-Com:  0.100D+01
 Coeff-En:   0.100D+01
 Coeff:      0.100D+01
 Gap=     0.596 Goal=   None    Shift=    0.000
 GapD=    0.596 DampG=2.000 DampE=0.500 DampFc=1.0000 IDamp=-1.
 RMSDP=4.72D-03 MaxDP=1.19D-01              OVMax= 1.35D-01

 Cycle   2  Pass 1  IDiag  1:
 E= -470.596041802824     Delta-E=       -0.722849850844 Rises=F Damp=F
 DIIS: error= 2.37D-02 at cycle   2 NSaved=   2.
 NSaved= 2 IEnMin= 2 EnMin= -470.596041802824     IErMin= 2 ErrMin= 2.37D-02
 ErrMax= 2.37D-02  0.00D+00 EMaxC= 1.00D-01 BMatC= 1.46D-01 BMatP= 1.07D+00
 IDIUse=3 WtCom= 7.63D-01 WtEn= 2.37D-01
 Coeff-Com:  0.219D+00 0.781D+00
 Coeff-En:   0.000D+00 0.100D+01
 Coeff:      0.167D+00 0.833D+00
 Gap=     0.656 Goal=   None    Shift=    0.000
 RMSDP=1.74D-03 MaxDP=3.39D-02 DE=-7.23D-01 OVMax= 4.78D-02

 Cycle   3  Pass 1  IDiag  1:
 E= -470.726928810325     Delta-E=       -0.130887007501 Rises=F Damp=F
 DIIS: error= 4.63D-03 at cycle   3 NSaved=   3.
 NSaved= 3 IEnMin= 3 EnMin= -470.726928810325     IErMin= 3 ErrMin= 4.63D-03
 ErrMax= 4.63D-03  0.00D+00 EMaxC= 1.00D-01 BMatC= 5.43D-03 BMatP= 1.46D-01
 IDIUse=3 WtCom= 9.54D-01 WtEn= 4.63D-02
 Coeff-Com: -0.263D-01 0.115D+00 0.912D+00
 Coeff-En:   0.000D+00 0.000D+00 0.100D+01
 Coeff:     -0.251D-01 0.109D+00 0.916D+00
 Gap=     0.627 Goal=   None    Shift=    0.000
 RMSDP=2.93D-04 MaxDP=7.46D-03 DE=-1.31D-01 OVMax= 9.89D-03

 Cycle   4  Pass 1  IDiag  1:
 E= -470.733018728868     Delta-E=       -0.006089918543 Rises=F Damp=F
 DIIS: error= 4.71D-04 at cycle   4 NSaved=   4.
 NSaved= 4 IEnMin= 4 EnMin= -470.733018728868     IErMin= 4 ErrMin= 4.71D-04
 ErrMax= 4.71D-04  0.00D+00 EMaxC= 1.00D-01 BMatC= 6.45D-05 BMatP= 5.43D-03
 IDIUse=3 WtCom= 9.95D-01 WtEn= 4.71D-03
 Coeff-Com:  0.129D-02-0.235D-01-0.887D-01 0.111D+01
 Coeff-En:   0.000D+00 0.000D+00 0.000D+00 0.100D+01
 Coeff:      0.128D-02-0.234D-01-0.882D-01 0.111D+01
 Gap=     0.626 Goal=   None    Shift=    0.000
 RMSDP=6.17D-05 MaxDP=1.26D-03 DE=-6.09D-03 OVMax= 1.81D-03

 Cycle   5  Pass 1  IDiag  1:
 E= -470.733126059123     Delta-E=       -0.000107330255 Rises=F Damp=F
 DIIS: error= 1.34D-04 at cycle   5 NSaved=   5.
 NSaved= 5 IEnMin= 5 EnMin= -470.733126059123     IErMin= 5 ErrMin= 1.34D-04
 ErrMax= 1.34D-04  0.00D+00 EMaxC= 1.00D-01 BMatC= 6.52D-06 BMatP= 6.45D-05
 IDIUse=3 WtCom= 9.99D-01 WtEn= 1.34D-03
 Coeff-Com:  0.218D-02-0.131D-01-0.819D-01 0.186D+00 0.906D+00
 Coeff-En:   0.000D+00 0.000D+00 0.000D+00 0.000D+00 0.100D+01
 Coeff:      0.217D-02-0.131D-01-0.818D-01 0.186D+00 0.907D+00
 Gap=     0.627 Goal=   None    Shift=    0.000
 RMSDP=1.59D-05 MaxDP=3.89D-04 DE=-1.07D-04 OVMax= 4.93D-04

 Cycle   6  Pass 1  IDiag  1:
 E= -470.733135192096     Delta-E=       -0.000009132973 Rises=F Damp=F
 DIIS: error= 2.04D-05 at cycle   6 NSaved=   6.
 NSaved= 6 IEnMin= 6 EnMin= -470.733135192096     IErMin= 6 ErrMin= 2.04D-05
 ErrMax= 2.04D-05  0.00D+00 EMaxC= 1.00D-01 BMatC= 1.46D-07 BMatP= 6.52D-06
 IDIUse=1 WtCom= 1.00D+00 WtEn= 0.00D+00
 Coeff-Com:  0.150D-03-0.365D-03-0.363D-02-0.313D-01 0.682D-01 0.967D+00
 Coeff:      0.150D-03-0.365D-03-0.363D-02-0.313D-01 0.682D-01 0.967D+00
 Gap=     0.627 Goal=   None    Shift=    0.000
 RMSDP=3.35D-06 MaxDP=7.04D-05 DE=-9.13D-06 OVMax= 9.99D-05

 Cycle   7  Pass 1  IDiag  1:
 E= -470.733135436053     Delta-E=       -0.000000243957 Rises=F Damp=F
 DIIS: error= 4.49D-06 at cycle   7 NSaved=   7.
 NSaved= 7 IEnMin= 7 EnMin= -470.733135436053     IErMin= 7 ErrMin= 4.49D-06
 ErrMax= 4.49D-06  0.00D+00 EMaxC= 1.00D-01 BMatC= 5.46D-09 BMatP= 1.46D-07
 IDIUse=1 WtCom= 1.00D+00 WtEn= 0.00D+00
 Coeff-Com: -0.533D-04 0.364D-03 0.234D-02-0.726D-02-0.244D-01 0.272D-01
 Coeff-Com:  0.100D+01
 Coeff:     -0.533D-04 0.364D-03 0.234D-02-0.726D-02-0.244D-01 0.272D-01
 Coeff:      0.100D+01
 Gap=     0.627 Goal=   None    Shift=    0.000
 RMSDP=7.22D-07 MaxDP=1.40D-05 DE=-2.44D-07 OVMax= 2.12D-05

 Cycle   8  Pass 1  IDiag  1:
 E= -470.733135445492     Delta-E=       -0.000000009439 Rises=F Damp=F
 DIIS: error= 1.55D-06 at cycle   8 NSaved=   8.
 NSaved= 8 IEnMin= 8 EnMin= -470.733135445492     IErMin= 8 ErrMin= 1.55D-06
 ErrMax= 1.55D-06  0.00D+00 EMaxC= 1.00D-01 BMatC= 5.75D-10 BMatP= 5.46D-09
 IDIUse=1 WtCom= 1.00D+00 WtEn= 0.00D+00
 Coeff-Com: -0.161D-04 0.694D-04 0.548D-03 0.120D-02-0.742D-02-0.638D-01
 Coeff-Com:  0.140D+00 0.930D+00
 Coeff:     -0.161D-04 0.694D-04 0.548D-03 0.120D-02-0.742D-02-0.638D-01
 Coeff:      0.140D+00 0.930D+00
 Gap=     0.627 Goal=   None    Shift=    0.000
 RMSDP=1.94D-07 MaxDP=3.77D-06 DE=-9.44D-09 OVMax= 7.24D-06

 Cycle   9  Pass 1  IDiag  1:
 E= -470.733135446397     Delta-E=       -0.000000000905 Rises=F Damp=F
 DIIS: error= 3.55D-07 at cycle   9 NSaved=   9.
 NSaved= 9 IEnMin= 9 EnMin= -470.733135446397     IErMin= 9 ErrMin= 3.55D-07
 ErrMax= 3.55D-07  0.00D+00 EMaxC= 1.00D-01 BMatC= 3.44D-11 BMatP= 5.75D-10
 IDIUse=1 WtCom= 1.00D+00 WtEn= 0.00D+00
 Coeff-Com:  0.464D-05-0.307D-04-0.202D-03 0.470D-03 0.236D-02 0.157D-02
 Coeff-Com: -0.821D-01-0.522D-01 0.113D+01
 Coeff:      0.464D-05-0.307D-04-0.202D-03 0.470D-03 0.236D-02 0.157D-02
 Coeff:     -0.821D-01-0.522D-01 0.113D+01
 Gap=     0.627 Goal=   None    Shift=    0.000
 RMSDP=6.74D-08 MaxDP=1.15D-06 DE=-9.05D-10 OVMax= 1.99D-06

 Cycle  10  Pass 1  IDiag  1:
 E= -470.733135446476     Delta-E=       -0.000000000079 Rises=F Damp=F
 DIIS: error= 8.19D-08 at cycle  10 NSaved=  10.
 NSaved=10 IEnMin=10 EnMin= -470.733135446476     IErMin=10 ErrMin= 8.19D-08
 ErrMax= 8.19D-08  0.00D+00 EMaxC= 1.00D-01 BMatC= 1.50D-12 BMatP= 3.44D-11
 IDIUse=1 WtCom= 1.00D+00 WtEn= 0.00D+00
 Coeff-Com:  0.539D-06-0.181D-05-0.178D-04-0.114D-03 0.282D-03 0.389D-02
 Coeff-Com: -0.242D-02-0.551D-01-0.777D-01 0.113D+01
 Coeff:      0.539D-06-0.181D-05-0.178D-04-0.114D-03 0.282D-03 0.389D-02
 Coeff:     -0.242D-02-0.551D-01-0.777D-01 0.113D+01
 Gap=     0.627 Goal=   None    Shift=    0.000
 RMSDP=1.43D-08 MaxDP=2.47D-07 DE=-7.94D-11 OVMax= 5.16D-07

 Cycle  11  Pass 1  IDiag  1:
 E= -470.733135446492     Delta-E=       -0.000000000015 Rises=F Damp=F
 DIIS: error= 1.01D-08 at cycle  11 NSaved=  11.
 NSaved=11 IEnMin=11 EnMin= -470.733135446492     IErMin=11 ErrMin= 1.01D-08
 ErrMax= 1.01D-08  0.00D+00 EMaxC= 1.00D-01 BMatC= 4.74D-14 BMatP= 1.50D-12
 IDIUse=1 WtCom= 1.00D+00 WtEn= 0.00D+00
 Coeff-Com: -0.163D-06 0.110D-05 0.690D-05-0.102D-04-0.881D-04-0.188D-03
 Coeff-Com:  0.264D-02 0.350D-02-0.292D-01-0.578D-01 0.108D+01
 Coeff:     -0.163D-06 0.110D-05 0.690D-05-0.102D-04-0.881D-04-0.188D-03
 Coeff:      0.264D-02 0.350D-02-0.292D-01-0.578D-01 0.108D+01
 Gap=     0.627 Goal=   None    Shift=    0.000
 RMSDP=1.90D-09 MaxDP=4.01D-08 DE=-1.52D-11 OVMax= 6.33D-08

 SCF Done:  E(RHF) =  -470.733135446     A.U. after   11 cycles
            NFock= 11  Conv=0.19D-08     -V/T= 2.0011
 KE= 4.702286289974D+02 PE=-2.543086245538D+03 EE= 8.771291460180D+02
 Leave Link  502 at Thu May  6 14:50:21 2021, MaxMem=   524288000 cpu:              28.6 elap:              18.6
 (Enter /opt/gaussian/g16_legacy/l801.exe)
 ExpMin= 1.61D-01 ExpMax= 3.05D+03 ExpMxC= 4.57D+02 IAcc=3 IRadAn=         5 AccDes= 0.00D+00
 HarFok:  IExCor=  205 AccDes= 0.00D+00 IRadAn=         5 IDoV=-2 UseB2=F ITyADJ=14
 ICtDFT= 12500011 ScaDFX=  1.000000  1.000000  1.000000  1.000000
 Largest valence mixing into a core orbital is  1.98D-04
 Largest core mixing into a valence orbital is  3.29D-05
 Range of M.O.s used for correlation:    13   236
 NBasis=   236 NAE=    50 NBE=    50 NFC=    12 NFV=     0
 NROrb=    224 NOA=    38 NOB=    38 NVA=   186 NVB=   186
 Leave Link  801 at Thu May  6 14:50:22 2021, MaxMem=   524288000 cpu:               2.1 elap:               1.1
 (Enter /opt/gaussian/g16_legacy/l906.exe)
 FulOut=F Deriv=F AODrv=F NAtomX=    40
   MMem=         154  MDisk=          38 MDiskD=          38
  W3Min=     1668048 MinDsk=     1838182 NBas6D=         236
 NBas2D=       28290    NTT=       27966    LW2=     2000000
    MDV=   523912979 MDiskM=       30715 NBas2p=       22223
 Fully direct method using O(OVN) memory.
 IMap=   1   2   3   4   5   6   7   8   9  10  11  12  13  14  15  16  17  18  19  20
 IMap=  21  22  23  24  25  26  27  28  29  30  31  32  33  34  35  36  37  38
 JobTyp=1 Pass  1:  I=   1 to  38 NPSUse=  2 ParTrn=T ParDer=T DoDerP=F.
 Spin components of T(2) and E(2):
     alpha-alpha T2 =       0.6303386255D-01 E2=     -0.1847029420D+00
     alpha-beta  T2 =       0.4047896603D+00 E2=     -0.1215511671D+01
     beta-beta   T2 =       0.6303386255D-01 E2=     -0.1847029420D+00
 The integrals were generated   1 times.
 ANorm=    0.1237278217D+01
 E2 =    -0.1584917555D+01 EUMP2 =    -0.47231805300116D+03
 Leave Link  906 at Thu May  6 14:51:13 2021, MaxMem=   524288000 cpu:              97.3 elap:              50.2
 (Enter /opt/gaussian/g16_legacy/l601.exe)
 Copying SCF densities to generalized density rwf, IOpCl= 0 IROHF=0.

 **********************************************************************

            Population analysis using the SCF density.

 **********************************************************************

 Orbital symmetries:
       Occupied  (A) (A) (A) (A) (A) (A) (A) (A) (A) (A) (A) (A)
                 (A) (A) (A) (A) (A) (A) (A) (A) (A) (A) (A) (A)
                 (A) (A) (A) (A) (A) (A) (A) (A) (A) (A) (A) (A)
                 (A) (A) (A) (A) (A) (A) (A) (A) (A) (A) (A) (A)
                 (A) (A)
       Virtual   (A) (A) (A) (A) (A) (A) (A) (A) (A) (A) (A) (A)
                 (A) (A) (A) (A) (A) (A) (A) (A) (A) (A) (A) (A)
                 (A) (A) (A) (A) (A) (A) (A) (A) (A) (A) (A) (A)
                 (A) (A) (A) (A) (A) (A) (A) (A) (A) (A) (A) (A)
                 (A) (A) (A) (A) (A) (A) (A) (A) (A) (A) (A) (A)
                 (A) (A) (A) (A) (A) (A) (A) (A) (A) (A) (A) (A)
                 (A) (A) (A) (A) (A) (A) (A) (A) (A) (A) (A) (A)
                 (A) (A) (A) (A) (A) (A) (A) (A) (A) (A) (A) (A)
                 (A) (A) (A) (A) (A) (A) (A) (A) (A) (A) (A) (A)
                 (A) (A) (A) (A) (A) (A) (A) (A) (A) (A) (A) (A)
                 (A) (A) (A) (A) (A) (A) (A) (A) (A) (A) (A) (A)
                 (A) (A) (A) (A) (A) (A) (A) (A) (A) (A) (A) (A)
                 (A) (A) (A) (A) (A) (A) (A) (A) (A) (A) (A) (A)
                 (A) (A) (A) (A) (A) (A) (A) (A) (A) (A) (A) (A)
                 (A) (A) (A) (A) (A) (A) (A) (A) (A) (A) (A) (A)
                 (A) (A) (A) (A) (A) (A)
 The electronic state is 1-A.
 Alpha  occ. eigenvalues --  -11.21671 -11.21667 -11.21641 -11.21576 -11.21481
 Alpha  occ. eigenvalues --  -11.21435 -11.21421 -11.21375 -11.21135 -11.21127
 Alpha  occ. eigenvalues --  -11.21104 -11.21055  -1.08534  -1.08436  -1.03609
 Alpha  occ. eigenvalues --   -1.03535  -0.96050  -0.95993  -0.87082  -0.86993
 Alpha  occ. eigenvalues --   -0.79677  -0.79597  -0.78404  -0.78203  -0.65438
 Alpha  occ. eigenvalues --   -0.64816  -0.61157  -0.60804  -0.59412  -0.59361
 Alpha  occ. eigenvalues --   -0.57680  -0.57586  -0.55418  -0.55211  -0.52739
 Alpha  occ. eigenvalues --   -0.52683  -0.52481  -0.52423  -0.50150  -0.49778
 Alpha  occ. eigenvalues --   -0.48104  -0.47830  -0.46831  -0.46602  -0.46281
 Alpha  occ. eigenvalues --   -0.45809  -0.45734  -0.45187  -0.43852  -0.43800
 Alpha virt. eigenvalues --    0.18871   0.21407   0.23882   0.24969   0.25562
 Alpha virt. eigenvalues --    0.25692   0.26779   0.27424   0.28843   0.29853
 Alpha virt. eigenvalues --    0.31068   0.31524   0.31618   0.31744   0.32264
 Alpha virt. eigenvalues --    0.32580   0.32960   0.33658   0.33945   0.34331
 Alpha virt. eigenvalues --    0.34735   0.35469   0.36116   0.36218   0.36402
 Alpha virt. eigenvalues --    0.37166   0.39074   0.39377   0.40519   0.41140
 Alpha virt. eigenvalues --    0.43215   0.45233   0.45331   0.45490   0.45779
 Alpha virt. eigenvalues --    0.47862   0.48052   0.48953   0.69228   0.69336
 Alpha virt. eigenvalues --    0.69403   0.69694   0.71519   0.71977   0.74844
 Alpha virt. eigenvalues --    0.75803   0.76359   0.76972   0.77230   0.80198
 Alpha virt. eigenvalues --    0.80830   0.81188   0.83521   0.84189   0.86160
 Alpha virt. eigenvalues --    0.87629   0.87964   0.88794   0.95609   0.95967
 Alpha virt. eigenvalues --    0.96228   0.96514   0.98377   0.98603   1.01298
 Alpha virt. eigenvalues --    1.01892   1.05408   1.05663   1.07478   1.07714
 Alpha virt. eigenvalues --    1.10544   1.10880   1.12523   1.13183   1.14583
 Alpha virt. eigenvalues --    1.16245   1.16515   1.16952   1.17554   1.17863
 Alpha virt. eigenvalues --    1.18200   1.18796   1.19188   1.19706   1.20236
 Alpha virt. eigenvalues --    1.20705   1.21067   1.21275   1.21593   1.21716
 Alpha virt. eigenvalues --    1.22458   1.22844   1.23100   1.23300   1.24601
 Alpha virt. eigenvalues --    1.25696   1.26402   1.26946   1.27342   1.34740
 Alpha virt. eigenvalues --    1.36794   1.38784   1.40746   1.51659   1.55394
 Alpha virt. eigenvalues --    1.58052   1.66035   1.67077   1.67248   1.67317
 Alpha virt. eigenvalues --    1.71521   1.72312   1.72734   1.73499   1.79364
 Alpha virt. eigenvalues --    1.80535   1.81096   1.81685   1.92486   1.93079
 Alpha virt. eigenvalues --    2.05388   2.05713   2.13194   2.13354   2.14749
 Alpha virt. eigenvalues --    2.14841   2.17710   2.18100   2.22372   2.22445
 Alpha virt. eigenvalues --    2.25590   2.25713   2.25833   2.26815   2.27651
 Alpha virt. eigenvalues --    2.27713   2.32708   2.32918   2.33895   2.34547
 Alpha virt. eigenvalues --    2.35955   2.36163   2.39571   2.39851   2.43028
 Alpha virt. eigenvalues --    2.43164   2.56692   2.56739   2.56808   2.56964
 Alpha virt. eigenvalues --    2.59497   2.60323   2.66743   2.66841   2.67553
 Alpha virt. eigenvalues --    2.67707   2.67979   2.68146   2.76662   2.77358
 Alpha virt. eigenvalues --    2.77682   2.78380   2.79908   2.80192   2.91335
 Alpha virt. eigenvalues --    2.91438   2.94873   2.95283   2.98547   2.98605
 Alpha virt. eigenvalues --    3.13658   3.13844   3.18474   3.18695   4.54965
 Alpha virt. eigenvalues --    4.58457   4.61688   4.64464   4.72077   4.73614
 Alpha virt. eigenvalues --    4.80031   4.80958   4.88095   4.89665   5.00209
 Alpha virt. eigenvalues --    5.02817
          Condensed to atoms (all electrons):
               1          2          3          4          5          6
     1  C    5.097368   0.351584  -0.057009   0.396177   0.394900  -0.043569
     2  C    0.351584   5.060950   0.340385  -0.041722  -0.042141   0.399227
     3  C   -0.057009   0.340385   5.098213  -0.002867  -0.003044  -0.039836
     4  H    0.396177  -0.041722  -0.002867   0.565702  -0.031495  -0.002970
     5  H    0.394900  -0.042141  -0.003044  -0.031495   0.558165   0.004528
     6  H   -0.043569   0.399227  -0.039836  -0.002970   0.004528   0.563760
     7  H   -0.043607   0.399007  -0.039958   0.004566  -0.003049  -0.031627
     8  H   -0.003626  -0.039013   0.391267   0.000167   0.002227   0.004206
     9  H   -0.003817  -0.038883   0.391313   0.002625   0.000190  -0.002888
    10  H    0.004384  -0.035807   0.394076  -0.000058  -0.000045  -0.002510
    11  C    0.354622  -0.051932   0.004072  -0.041466  -0.041805  -0.003180
    12  C   -0.051661   0.003978  -0.000085  -0.003286  -0.003197  -0.000065
    13  C    0.004057  -0.000085   0.000001  -0.000051  -0.000044  -0.000000
    14  H   -0.041546  -0.003266  -0.000052  -0.002784   0.004415   0.002399
    15  H   -0.041781  -0.003227  -0.000052   0.004478  -0.002959   0.000233
    16  H   -0.003229  -0.000064  -0.000000   0.002410   0.000256   0.000017
    17  H   -0.003112  -0.000059  -0.000000   0.000250   0.002050  -0.000004
    18  H   -0.000065  -0.000000  -0.000000  -0.000002   0.000014   0.000000
    19  H   -0.000070  -0.000000  -0.000000   0.000013  -0.000002  -0.000002
    20  H   -0.000087   0.000001  -0.000000   0.000001   0.000001   0.000000
    21  C    0.000023  -0.000001   0.000000  -0.000000   0.000017   0.000000
    22  C   -0.000440   0.000018  -0.000020   0.000005  -0.000297  -0.000000
    23  C    0.000008  -0.000001  -0.000004  -0.000000   0.000002   0.000000
    24  H   -0.000000   0.000000  -0.000000   0.000000  -0.000000  -0.000000
    25  H   -0.000001   0.000001  -0.000000   0.000000   0.000009   0.000000
    26  H    0.000005  -0.000000   0.000000  -0.000000   0.000032   0.000000
    27  H   -0.000332   0.000031   0.000013   0.000017   0.002143   0.000000
    28  H   -0.000000  -0.000000  -0.000001  -0.000000   0.000005   0.000000
    29  H   -0.000000   0.000000   0.000000   0.000000  -0.000000  -0.000000
    30  H    0.000000  -0.000000  -0.000000  -0.000000   0.000001   0.000000
    31  C   -0.000034  -0.000002   0.000000   0.000000   0.000030  -0.000000
    32  C    0.000001   0.000000   0.000000  -0.000000  -0.000002   0.000000
    33  C    0.000000  -0.000000   0.000000  -0.000000   0.000000  -0.000000
    34  H    0.000000   0.000000  -0.000000  -0.000000  -0.000001   0.000000
    35  H   -0.000031  -0.000009  -0.000001   0.000002   0.000299  -0.000000
    36  H   -0.000000  -0.000000   0.000000   0.000000   0.000000  -0.000000
    37  H   -0.000000   0.000000  -0.000000   0.000000  -0.000000   0.000000
    38  H   -0.000001  -0.000000  -0.000000   0.000000  -0.000000  -0.000000
    39  H   -0.000000  -0.000000  -0.000000   0.000000  -0.000000   0.000000
    40  H   -0.000000   0.000000  -0.000000   0.000000  -0.000000   0.000000
               7          8          9         10         11         12
     1  C   -0.043607  -0.003626  -0.003817   0.004384   0.354622  -0.051661
     2  C    0.399007  -0.039013  -0.038883  -0.035807  -0.051932   0.003978
     3  C   -0.039958   0.391267   0.391313   0.394076   0.004072  -0.000085
     4  H    0.004566   0.000167   0.002625  -0.000058  -0.041466  -0.003286
     5  H   -0.003049   0.002227   0.000190  -0.000045  -0.041805  -0.003197
     6  H   -0.031627   0.004206  -0.002888  -0.002510  -0.003180  -0.000065
     7  H    0.565218  -0.002872   0.004223  -0.002514  -0.003199  -0.000065
     8  H   -0.002872   0.548506  -0.029069  -0.027458  -0.000068  -0.000001
     9  H    0.004223  -0.029069   0.548351  -0.027470  -0.000070  -0.000000
    10  H   -0.002514  -0.027458  -0.027470   0.537066  -0.000087   0.000001
    11  C   -0.003199  -0.000068  -0.000070  -0.000087   5.086223   0.351645
    12  C   -0.000065  -0.000001  -0.000000   0.000001   0.351645   5.065153
    13  C   -0.000000  -0.000000  -0.000000  -0.000000  -0.057231   0.340113
    14  H    0.000238  -0.000002   0.000013   0.000001   0.396203  -0.041699
    15  H    0.002409   0.000014  -0.000001   0.000001   0.395754  -0.042105
    16  H   -0.000003   0.000000  -0.000002   0.000000  -0.043539   0.398947
    17  H    0.000017  -0.000002   0.000000   0.000000  -0.043659   0.399115
    18  H   -0.000002   0.000000  -0.000000  -0.000000  -0.003859  -0.038884
    19  H    0.000000  -0.000000   0.000000  -0.000000  -0.003810  -0.038922
    20  H    0.000000  -0.000000  -0.000000   0.000000   0.004395  -0.035793
    21  C    0.000000  -0.000003   0.000000  -0.000000   0.000001   0.000007
    22  C    0.000002  -0.000001   0.000000   0.000000   0.000016  -0.000006
    23  C   -0.000000   0.000036  -0.000000  -0.000000  -0.000000   0.000000
    24  H    0.000000   0.000000   0.000000   0.000000   0.000000  -0.000000
    25  H    0.000005   0.000001   0.000000  -0.000000   0.000000  -0.000001
    26  H   -0.000000  -0.000000  -0.000000  -0.000000  -0.000000  -0.000002
    27  H    0.000017   0.000254  -0.000001  -0.000001   0.000012  -0.000020
    28  H   -0.000000   0.000048  -0.000000  -0.000000   0.000000  -0.000000
    29  H    0.000000  -0.000000  -0.000000  -0.000000   0.000000  -0.000000
    30  H   -0.000000   0.000007  -0.000000  -0.000000  -0.000000   0.000000
    31  C    0.000001  -0.000000  -0.000000  -0.000000  -0.000102  -0.000156
    32  C   -0.000000   0.000000  -0.000000  -0.000000   0.000003   0.000007
    33  C   -0.000000  -0.000000   0.000000  -0.000000  -0.000014   0.000013
    34  H    0.000000   0.000000   0.000000   0.000000   0.000002  -0.000027
    35  H    0.000015  -0.000001   0.000000   0.000000  -0.000033  -0.000311
    36  H    0.000000  -0.000000  -0.000000  -0.000000  -0.000000  -0.000000
    37  H    0.000000   0.000000   0.000000   0.000000   0.000001  -0.000001
    38  H    0.000000   0.000000  -0.000000   0.000000  -0.000002  -0.000009
    39  H    0.000000   0.000000  -0.000000   0.000000   0.000000  -0.000003
    40  H    0.000000  -0.000000  -0.000000   0.000000   0.000000   0.000000
              13         14         15         16         17         18
     1  C    0.004057  -0.041546  -0.041781  -0.003229  -0.003112  -0.000065
     2  C   -0.000085  -0.003266  -0.003227  -0.000064  -0.000059  -0.000000
     3  C    0.000001  -0.000052  -0.000052  -0.000000  -0.000000  -0.000000
     4  H   -0.000051  -0.002784   0.004478   0.002410   0.000250  -0.000002
     5  H   -0.000044   0.004415  -0.002959   0.000256   0.002050   0.000014
     6  H   -0.000000   0.002399   0.000233   0.000017  -0.000004   0.000000
     7  H   -0.000000   0.000238   0.002409  -0.000003   0.000017  -0.000002
     8  H   -0.000000  -0.000002   0.000014   0.000000  -0.000002   0.000000
     9  H   -0.000000   0.000013  -0.000001  -0.000002   0.000000  -0.000000
    10  H   -0.000000   0.000001   0.000001   0.000000   0.000000  -0.000000
    11  C   -0.057231   0.396203   0.395754  -0.043539  -0.043659  -0.003859
    12  C    0.340113  -0.041699  -0.042105   0.398947   0.399115  -0.038884
    13  C    5.100506  -0.002872  -0.002760  -0.039833  -0.039657   0.390941
    14  H   -0.002872   0.566096  -0.031561  -0.002978   0.004535   0.000175
    15  H   -0.002760  -0.031561   0.567885   0.004580  -0.003179   0.002465
    16  H   -0.039833  -0.002978   0.004580   0.564110  -0.031509   0.004192
    17  H   -0.039657   0.004535  -0.003179  -0.031509   0.559847  -0.002928
    18  H    0.390941   0.000175   0.002465   0.004192  -0.002928   0.545823
    19  H    0.390912   0.002631   0.000160  -0.002889   0.004208  -0.029002
    20  H    0.394126  -0.000059  -0.000057  -0.002495  -0.002482  -0.027306
    21  C    0.000000  -0.000000  -0.000005  -0.000000  -0.000037  -0.000000
    22  C    0.000000  -0.000000  -0.000000  -0.000000   0.000038   0.000000
    23  C   -0.000000   0.000000  -0.000000  -0.000000  -0.000000  -0.000000
    24  H    0.000000  -0.000000   0.000000   0.000000   0.000000   0.000000
    25  H    0.000000  -0.000000   0.000001   0.000000   0.000002   0.000000
    26  H    0.000000   0.000000  -0.000000  -0.000000   0.000017  -0.000000
    27  H   -0.000000  -0.000000   0.000007   0.000000   0.000092  -0.000000
    28  H    0.000000   0.000000  -0.000000   0.000000   0.000000  -0.000000
    29  H    0.000000  -0.000000   0.000000   0.000000   0.000000   0.000000
    30  H   -0.000000   0.000000  -0.000000   0.000000  -0.000000   0.000000
    31  C    0.000001   0.000001   0.000015   0.000001   0.000302   0.000013
    32  C    0.000003  -0.000000  -0.000003  -0.000000  -0.000022  -0.000017
    33  C   -0.000114   0.000000  -0.000004  -0.000000   0.000019   0.000057
    34  H    0.000000  -0.000000  -0.000001   0.000000   0.000187   0.000001
    35  H   -0.000016   0.000003   0.000645   0.000012   0.000541   0.000084
    36  H   -0.000000   0.000000   0.000000   0.000000   0.000000   0.000000
    37  H   -0.000000  -0.000000   0.000002   0.000000   0.000001   0.000000
    38  H   -0.000021  -0.000001   0.000169   0.000001   0.000009   0.001110
    39  H    0.000004  -0.000000  -0.000001   0.000000   0.000005   0.000016
    40  H    0.000001   0.000000  -0.000000  -0.000000  -0.000000  -0.000003
              19         20         21         22         23         24
     1  C   -0.000070  -0.000087   0.000023  -0.000440   0.000008  -0.000000
     2  C   -0.000000   0.000001  -0.000001   0.000018  -0.000001   0.000000
     3  C   -0.000000  -0.000000   0.000000  -0.000020  -0.000004  -0.000000
     4  H    0.000013   0.000001  -0.000000   0.000005  -0.000000   0.000000
     5  H   -0.000002   0.000001   0.000017  -0.000297   0.000002  -0.000000
     6  H   -0.000002   0.000000   0.000000  -0.000000   0.000000  -0.000000
     7  H    0.000000   0.000000   0.000000   0.000002  -0.000000   0.000000
     8  H   -0.000000  -0.000000  -0.000003  -0.000001   0.000036   0.000000
     9  H    0.000000  -0.000000   0.000000   0.000000  -0.000000   0.000000
    10  H   -0.000000   0.000000  -0.000000   0.000000  -0.000000   0.000000
    11  C   -0.003810   0.004395   0.000001   0.000016  -0.000000   0.000000
    12  C   -0.038922  -0.035793   0.000007  -0.000006   0.000000  -0.000000
    13  C    0.390912   0.394126   0.000000   0.000000  -0.000000   0.000000
    14  H    0.002631  -0.000059  -0.000000  -0.000000   0.000000  -0.000000
    15  H    0.000160  -0.000057  -0.000005  -0.000000  -0.000000   0.000000
    16  H   -0.002889  -0.002495  -0.000000  -0.000000  -0.000000   0.000000
    17  H    0.004208  -0.002482  -0.000037   0.000038  -0.000000   0.000000
    18  H   -0.029002  -0.027306  -0.000000   0.000000  -0.000000   0.000000
    19  H    0.549275  -0.027506  -0.000000  -0.000000   0.000000  -0.000000
    20  H   -0.027506   0.536682  -0.000000  -0.000000  -0.000000  -0.000000
    21  C   -0.000000  -0.000000   5.085148   0.351505  -0.057319   0.396239
    22  C   -0.000000  -0.000000   0.351505   5.073023   0.339887  -0.041715
    23  C    0.000000  -0.000000  -0.057319   0.339887   5.097400  -0.002853
    24  H   -0.000000  -0.000000   0.396239  -0.041715  -0.002853   0.565843
    25  H   -0.000000   0.000000   0.395917  -0.041817  -0.002869  -0.031383
    26  H    0.000000  -0.000000  -0.043619   0.399403  -0.039785  -0.002966
    27  H    0.000000  -0.000000  -0.043892   0.397689  -0.039726   0.004512
    28  H   -0.000000   0.000000  -0.003802  -0.038849   0.391191   0.000159
    29  H   -0.000000  -0.000000  -0.003792  -0.038853   0.391381   0.002614
    30  H    0.000000   0.000000   0.004398  -0.035823   0.394139  -0.000058
    31  C   -0.000000  -0.000000   0.353996  -0.051544   0.004050  -0.041483
    32  C   -0.000000   0.000000  -0.051697   0.003958  -0.000084  -0.003282
    33  C    0.000001   0.000002   0.004064  -0.000085   0.000001  -0.000051
    34  H    0.000000  -0.000000  -0.041757  -0.003262  -0.000052  -0.002801
    35  H   -0.000000  -0.000001  -0.041267  -0.003133  -0.000040   0.004351
    36  H    0.000000   0.000000  -0.003205  -0.000064  -0.000000   0.002398
    37  H    0.000000  -0.000000  -0.003225  -0.000065  -0.000000   0.000243
    38  H   -0.000001  -0.000005  -0.000066  -0.000000  -0.000000  -0.000002
    39  H    0.000000   0.000000  -0.000071  -0.000001  -0.000000   0.000013
    40  H   -0.000000  -0.000000  -0.000087   0.000001  -0.000000   0.000001
              25         26         27         28         29         30
     1  C   -0.000001   0.000005  -0.000332  -0.000000  -0.000000   0.000000
     2  C    0.000001  -0.000000   0.000031  -0.000000   0.000000  -0.000000
     3  C   -0.000000   0.000000   0.000013  -0.000001   0.000000  -0.000000
     4  H    0.000000  -0.000000   0.000017  -0.000000   0.000000  -0.000000
     5  H    0.000009   0.000032   0.002143   0.000005  -0.000000   0.000001
     6  H    0.000000   0.000000   0.000000   0.000000  -0.000000   0.000000
     7  H    0.000005  -0.000000   0.000017  -0.000000   0.000000  -0.000000
     8  H    0.000001  -0.000000   0.000254   0.000048  -0.000000   0.000007
     9  H    0.000000  -0.000000  -0.000001  -0.000000  -0.000000  -0.000000
    10  H   -0.000000  -0.000000  -0.000001  -0.000000  -0.000000  -0.000000
    11  C    0.000000  -0.000000   0.000012   0.000000   0.000000  -0.000000
    12  C   -0.000001  -0.000002  -0.000020  -0.000000  -0.000000   0.000000
    13  C    0.000000   0.000000  -0.000000   0.000000   0.000000  -0.000000
    14  H   -0.000000   0.000000  -0.000000   0.000000  -0.000000   0.000000
    15  H    0.000001  -0.000000   0.000007  -0.000000   0.000000  -0.000000
    16  H    0.000000  -0.000000   0.000000   0.000000   0.000000   0.000000
    17  H    0.000002   0.000017   0.000092   0.000000   0.000000  -0.000000
    18  H    0.000000  -0.000000  -0.000000  -0.000000   0.000000   0.000000
    19  H   -0.000000   0.000000   0.000000  -0.000000  -0.000000   0.000000
    20  H    0.000000  -0.000000  -0.000000   0.000000  -0.000000   0.000000
    21  C    0.395917  -0.043619  -0.043892  -0.003802  -0.003792   0.004398
    22  C   -0.041817   0.399403   0.397689  -0.038849  -0.038853  -0.035823
    23  C   -0.002869  -0.039785  -0.039726   0.391191   0.391381   0.394139
    24  H   -0.031383  -0.002966   0.004512   0.000159   0.002614  -0.000058
    25  H    0.567202   0.004575  -0.003015   0.002636   0.000161  -0.000059
    26  H    0.004575   0.563675  -0.031933   0.004220  -0.002886  -0.002503
    27  H   -0.003015  -0.031933   0.556880  -0.002978   0.004192  -0.002503
    28  H    0.002636   0.004220  -0.002978   0.548838  -0.029070  -0.027488
    29  H    0.000161  -0.002886   0.004192  -0.029070   0.548133  -0.027418
    30  H   -0.000059  -0.002503  -0.002503  -0.027488  -0.027418   0.536705
    31  C   -0.041597  -0.003167  -0.003204  -0.000068  -0.000069  -0.000087
    32  C   -0.003300  -0.000066  -0.000053  -0.000001  -0.000001   0.000001
    33  C   -0.000052  -0.000000  -0.000000  -0.000000  -0.000000  -0.000000
    34  H    0.004474   0.002420   0.000271  -0.000001   0.000013   0.000001
    35  H   -0.002854   0.000225   0.001724   0.000013  -0.000002   0.000001
    36  H    0.000245   0.000017  -0.000005   0.000000  -0.000002   0.000000
    37  H    0.002416  -0.000003   0.000019  -0.000002   0.000000   0.000000
    38  H    0.000014   0.000000  -0.000002   0.000000  -0.000000  -0.000000
    39  H   -0.000001  -0.000002   0.000000  -0.000000   0.000000  -0.000000
    40  H    0.000001   0.000000   0.000000  -0.000000  -0.000000   0.000000
              31         32         33         34         35         36
     1  C   -0.000034   0.000001   0.000000   0.000000  -0.000031  -0.000000
     2  C   -0.000002   0.000000  -0.000000   0.000000  -0.000009  -0.000000
     3  C    0.000000   0.000000   0.000000  -0.000000  -0.000001   0.000000
     4  H    0.000000  -0.000000  -0.000000  -0.000000   0.000002   0.000000
     5  H    0.000030  -0.000002   0.000000  -0.000001   0.000299   0.000000
     6  H   -0.000000   0.000000  -0.000000   0.000000  -0.000000  -0.000000
     7  H    0.000001  -0.000000  -0.000000   0.000000   0.000015   0.000000
     8  H   -0.000000   0.000000  -0.000000   0.000000  -0.000001  -0.000000
     9  H   -0.000000  -0.000000   0.000000   0.000000   0.000000  -0.000000
    10  H   -0.000000  -0.000000  -0.000000   0.000000   0.000000  -0.000000
    11  C   -0.000102   0.000003  -0.000014   0.000002  -0.000033  -0.000000
    12  C   -0.000156   0.000007   0.000013  -0.000027  -0.000311  -0.000000
    13  C    0.000001   0.000003  -0.000114   0.000000  -0.000016  -0.000000
    14  H    0.000001  -0.000000   0.000000  -0.000000   0.000003   0.000000
    15  H    0.000015  -0.000003  -0.000004  -0.000001   0.000645   0.000000
    16  H    0.000001  -0.000000  -0.000000   0.000000   0.000012   0.000000
    17  H    0.000302  -0.000022   0.000019   0.000187   0.000541   0.000000
    18  H    0.000013  -0.000017   0.000057   0.000001   0.000084   0.000000
    19  H   -0.000000  -0.000000   0.000001   0.000000  -0.000000   0.000000
    20  H   -0.000000   0.000000   0.000002  -0.000000  -0.000001   0.000000
    21  C    0.353996  -0.051697   0.004064  -0.041757  -0.041267  -0.003205
    22  C   -0.051544   0.003958  -0.000085  -0.003262  -0.003133  -0.000064
    23  C    0.004050  -0.000084   0.000001  -0.000052  -0.000040  -0.000000
    24  H   -0.041483  -0.003282  -0.000051  -0.002801   0.004351   0.002398
    25  H   -0.041597  -0.003300  -0.000052   0.004474  -0.002854   0.000245
    26  H   -0.003167  -0.000066  -0.000000   0.002420   0.000225   0.000017
    27  H   -0.003204  -0.000053  -0.000000   0.000271   0.001724  -0.000005
    28  H   -0.000068  -0.000001  -0.000000  -0.000001   0.000013   0.000000
    29  H   -0.000069  -0.000001  -0.000000   0.000013  -0.000002  -0.000002
    30  H   -0.000087   0.000001  -0.000000   0.000001   0.000001   0.000000
    31  C    5.091513   0.350841  -0.057275   0.396531   0.397000  -0.043517
    32  C    0.350841   5.061826   0.339964  -0.041895  -0.041317   0.399201
    33  C   -0.057275   0.339964   5.100875  -0.002849  -0.002845  -0.039794
    34  H    0.396531  -0.041895  -0.002849   0.566490  -0.031923  -0.002971
    35  H    0.397000  -0.041317  -0.002845  -0.031923   0.559006   0.004468
    36  H   -0.043517   0.399201  -0.039794  -0.002971   0.004468   0.563469
    37  H   -0.043559   0.398959  -0.039900   0.004572  -0.003028  -0.031523
    38  H   -0.003676  -0.038798   0.390965   0.000165   0.002318   0.004173
    39  H   -0.003780  -0.038889   0.391519   0.002627   0.000159  -0.002878
    40  H    0.004384  -0.035761   0.393782  -0.000059  -0.000048  -0.002510
              37         38         39         40
     1  C   -0.000000  -0.000001  -0.000000  -0.000000
     2  C    0.000000  -0.000000  -0.000000   0.000000
     3  C   -0.000000  -0.000000  -0.000000  -0.000000
     4  H    0.000000   0.000000   0.000000   0.000000
     5  H   -0.000000  -0.000000  -0.000000  -0.000000
     6  H    0.000000  -0.000000   0.000000   0.000000
     7  H    0.000000   0.000000   0.000000   0.000000
     8  H    0.000000   0.000000   0.000000  -0.000000
     9  H    0.000000  -0.000000  -0.000000  -0.000000
    10  H    0.000000   0.000000   0.000000   0.000000
    11  C    0.000001  -0.000002   0.000000   0.000000
    12  C   -0.000001  -0.000009  -0.000003   0.000000
    13  C   -0.000000  -0.000021   0.000004   0.000001
    14  H   -0.000000  -0.000001  -0.000000   0.000000
    15  H    0.000002   0.000169  -0.000001  -0.000000
    16  H    0.000000   0.000001   0.000000  -0.000000
    17  H    0.000001   0.000009   0.000005  -0.000000
    18  H    0.000000   0.001110   0.000016  -0.000003
    19  H    0.000000  -0.000001   0.000000  -0.000000
    20  H   -0.000000  -0.000005   0.000000  -0.000000
    21  C   -0.003225  -0.000066  -0.000071  -0.000087
    22  C   -0.000065  -0.000000  -0.000001   0.000001
    23  C   -0.000000  -0.000000  -0.000000  -0.000000
    24  H    0.000243  -0.000002   0.000013   0.000001
    25  H    0.002416   0.000014  -0.000001   0.000001
    26  H   -0.000003   0.000000  -0.000002   0.000000
    27  H    0.000019  -0.000002   0.000000   0.000000
    28  H   -0.000002   0.000000  -0.000000  -0.000000
    29  H    0.000000  -0.000000   0.000000  -0.000000
    30  H    0.000000  -0.000000  -0.000000   0.000000
    31  C   -0.043559  -0.003676  -0.003780   0.004384
    32  C    0.398959  -0.038798  -0.038889  -0.035761
    33  C   -0.039900   0.390965   0.391519   0.393782
    34  H    0.004572   0.000165   0.002627  -0.000059
    35  H   -0.003028   0.002318   0.000159  -0.000048
    36  H   -0.031523   0.004173  -0.002878  -0.002510
    37  H    0.564411  -0.002877   0.004218  -0.002517
    38  H   -0.002877   0.546309  -0.029276  -0.027239
    39  H    0.004218  -0.029276   0.547897  -0.027428
    40  H   -0.002517  -0.027239  -0.027428   0.536721
 Mulliken charges:
               1
     1  C   -0.309113
     2  C   -0.298969
     3  C   -0.476411
     4  H    0.150289
     5  H    0.158798
     6  H    0.152281
     7  H    0.151176
     8  H    0.155382
     9  H    0.155485
    10  H    0.160421
    11  C   -0.298895
    12  C   -0.302679
    13  C   -0.477980
    14  H    0.150110
    15  H    0.148879
    16  H    0.152015
    17  H    0.155412
    18  H    0.157178
    19  H    0.155004
    20  H    0.160581
    21  C   -0.297470
    22  C   -0.309569
    23  C   -0.475361
    24  H    0.150218
    25  H    0.149289
    26  H    0.152345
    27  H    0.159790
    28  H    0.155149
    29  H    0.155599
    30  H    0.160686
    31  C   -0.305360
    32  C   -0.299575
    33  C   -0.478279
    34  H    0.149846
    35  H    0.155995
    36  H    0.152497
    37  H    0.151859
    38  H    0.156743
    39  H    0.155870
    40  H    0.160762
 Sum of Mulliken charges =  -0.00000
 Mulliken charges with hydrogens summed into heavy atoms:
               1
     1  C   -0.000026
     2  C    0.004489
     3  C   -0.005124
    11  C    0.000094
    12  C    0.004748
    13  C   -0.005217
    21  C    0.002037
    22  C    0.002567
    23  C   -0.003926
    31  C    0.000481
    32  C    0.004780
    33  C   -0.004903
 Electronic spatial extent (au):  <R**2>=           4305.3722
 Charge=              0.0000 electrons
 Dipole moment (field-independent basis, Debye):
    X=              0.0225    Y=              0.0062    Z=              0.0180  Tot=              0.0295
 Quadrupole moment (field-independent basis, Debye-Ang):
   XX=            -83.1463   YY=            -87.1660   ZZ=            -84.2830
   XY=              0.1796   XZ=              0.2618   YZ=             -0.1844
 Traceless Quadrupole moment (field-independent basis, Debye-Ang):
   XX=              1.7188   YY=             -2.3009   ZZ=              0.5821
   XY=              0.1796   XZ=              0.2618   YZ=             -0.1844
 Octapole moment (field-independent basis, Debye-Ang**2):
  XXX=             -2.0531  YYY=              0.0292  ZZZ=              0.0581  XYY=             -0.3691
  XXY=             -2.6104  XXZ=              3.6253  XZZ=              0.8942  YZZ=              0.1360
  YYZ=              0.0598  XYZ=              0.2731
 Hexadecapole moment (field-independent basis, Debye-Ang**3):
 XXXX=          -3066.5923 YYYY=          -2529.4080 ZZZZ=           -509.5584 XXXY=              8.6916
 XXXZ=              4.9548 YYYX=             -2.8268 YYYZ=             -2.8778 ZZZX=             -0.0185
 ZZZY=             -4.0265 XXYY=           -936.5636 XXZZ=           -601.8045 YYZZ=           -485.9878
 XXYZ=              3.2970 YYXZ=             -0.0929 ZZXY=             -5.8797
 N-N= 7.249953350766D+02 E-N=-2.543086245410D+03  KE= 4.702286289974D+02
 Leave Link  601 at Thu May  6 14:51:13 2021, MaxMem=   524288000 cpu:               0.6 elap:               0.6
 (Enter /opt/gaussian/g16_legacy/l9999.exe)
 1\1\GINC-TRUENO91\SP\RMP2-FC\6-31G(d)\C12H28\JRAMOS\06-May-2021\0\\#p 
 6-31g* mp2\\Input file generated by CHIRIPA (05-May-2021 14:51:08)\\0,
 1\C,0,-0.666,-0.374,0.\C,0,-1.882,0.553,0.\C,0,-3.207,-0.21,0.\H,0,-0.
 713,-1.03,-0.88\H,0,-0.713,-1.029,0.881\H,0,-1.832,1.207,-0.88\H,0,-1.
 832,1.207,0.88\H,0,-3.283,-0.85,0.885\H,0,-3.283,-0.85,-0.885\H,0,-4.0
 63,0.472,0.\C,0,0.666,0.374,0.\C,0,1.882,-0.553,0.\C,0,3.207,0.21,0.\H
 ,0,0.713,1.029,-0.881\H,0,0.713,1.03,0.88\H,0,1.832,-1.207,-0.88\H,0,1
 .832,-1.207,0.88\H,0,3.283,0.85,0.885\H,0,3.283,0.85,-0.885\H,0,4.063,
 -0.472,0.\C,0,-0.255613,-1.308343,4.892966\C,0,-0.839827,-2.426465,4.0
 28973\C,0,-2.183836,-2.93571,4.550607\H,0,-0.136589,-1.673209,5.92236\
 H,0,-0.971926,-0.476273,4.93713\H,0,-0.122033,-3.255611,3.985321\H,0,-
 0.957295,-2.058955,3.001475\H,0,-2.918816,-2.124744,4.577795\H,0,-2.07
 8808,-3.328199,5.567231\H,0,-2.583345,-3.734583,3.918109\C,0,1.087903,
 -0.788796,4.38428\C,0,1.672116,0.329326,5.248273\C,0,3.016126,0.838572
 ,4.72664\H,0,1.804216,-1.620866,4.340117\H,0,0.968879,-0.42393,3.35488
 7\H,0,1.789585,-0.038183,6.275772\H,0,0.954323,1.158472,5.291926\H,0,2
 .911098,1.231061,3.710016\H,0,3.751105,0.027606,4.699452\H,0,3.415635,
 1.637445,5.359138\\Version=EM64L-G16RevA.03\State=1-A\HF=-470.7331354\
 MP2=-472.318053\RMSD=1.898e-09\PG=C01 [X(C12H28)]\\@


 A MAN BEGINS CUTTING HIS WISDOM TEETH THE 1ST
 TIME HE BITES OFF MORE THAN HE CAN CHEW.
 Job cpu time:       0 days  0 hours  2 minutes 28.0 seconds.
 Elapsed time:       0 days  0 hours  1 minutes 20.4 seconds.
 File lengths (MBytes):  RWF=     26 Int=      0 D2E=      0 Chk=      5 Scr=      1
 Normal termination of Gaussian 16 at Thu May  6 14:51:14 2021.
