 Entering Gaussian System, Link 0=/opt/gaussian/g16_legacy/g16
 Input=gaussian_00294_1_2.com
 Output=gaussian_00294_1_2.log
 Initial command:
 /opt/gaussian/g16_legacy/l1.exe "/scratch-local/jramos/2587981/Gau-15673.inp" -scrdir="/scratch-local/jramos/2587981/"
 Entering Link 1 = /opt/gaussian/g16_legacy/l1.exe PID=     15674.
  
 Copyright (c) 1988,1990,1992,1993,1995,1998,2003,2009,2016,
            Gaussian, Inc.  All Rights Reserved.
  
 This is part of the Gaussian(R) 16 program.  It is based on
 the Gaussian(R) 09 system (copyright 2009, Gaussian, Inc.),
 the Gaussian(R) 03 system (copyright 2003, Gaussian, Inc.),
 the Gaussian(R) 98 system (copyright 1998, Gaussian, Inc.),
 the Gaussian(R) 94 system (copyright 1995, Gaussian, Inc.),
 the Gaussian 92(TM) system (copyright 1992, Gaussian, Inc.),
 the Gaussian 90(TM) system (copyright 1990, Gaussian, Inc.),
 the Gaussian 88(TM) system (copyright 1988, Gaussian, Inc.),
 the Gaussian 86(TM) system (copyright 1986, Carnegie Mellon
 University), and the Gaussian 82(TM) system (copyright 1983,
 Carnegie Mellon University). Gaussian is a federally registered
 trademark of Gaussian, Inc.
  
 This software contains proprietary and confidential information,
 including trade secrets, belonging to Gaussian, Inc.
  
 This software is provided under written license and may be
 used, copied, transmitted, or stored only in accord with that
 written license.
  
 The following legend is applicable only to US Government
 contracts under FAR:
  
                    RESTRICTED RIGHTS LEGEND
  
 Use, reproduction and disclosure by the US Government is
 subject to restrictions as set forth in subparagraphs (a)
 and (c) of the Commercial Computer Software - Restricted
 Rights clause in FAR 52.227-19.
  
 Gaussian, Inc.
 340 Quinnipiac St., Bldg. 40, Wallingford CT 06492
  
  
 ---------------------------------------------------------------
 Warning -- This program may not be used in any manner that
 competes with the business of Gaussian, Inc. or will provide
 assistance to any competitor of Gaussian, Inc.  The licensee
 of this program is prohibited from giving any competitor of
 Gaussian, Inc. access to this program.  By using this program,
 the user acknowledges that Gaussian, Inc. is engaged in the
 business of creating and licensing software in the field of
 computational chemistry and represents and warrants to the
 licensee that it is not a competitor of Gaussian, Inc. and that
 it will not use this program in any manner prohibited above.
 ---------------------------------------------------------------
  

 Cite this work as:
 Gaussian 16, Revision A.03,
 M. J. Frisch, G. W. Trucks, H. B. Schlegel, G. E. Scuseria, 
 M. A. Robb, J. R. Cheeseman, G. Scalmani, V. Barone, 
 G. A. Petersson, H. Nakatsuji, X. Li, M. Caricato, A. V. Marenich, 
 J. Bloino, B. G. Janesko, R. Gomperts, B. Mennucci, H. P. Hratchian, 
 J. V. Ortiz, A. F. Izmaylov, J. L. Sonnenberg, D. Williams-Young, 
 F. Ding, F. Lipparini, F. Egidi, J. Goings, B. Peng, A. Petrone, 
 T. Henderson, D. Ranasinghe, V. G. Zakrzewski, J. Gao, N. Rega, 
 G. Zheng, W. Liang, M. Hada, M. Ehara, K. Toyota, R. Fukuda, 
 J. Hasegawa, M. Ishida, T. Nakajima, Y. Honda, O. Kitao, H. Nakai, 
 T. Vreven, K. Throssell, J. A. Montgomery, Jr., J. E. Peralta, 
 F. Ogliaro, M. J. Bearpark, J. J. Heyd, E. N. Brothers, K. N. Kudin, 
 V. N. Staroverov, T. A. Keith, R. Kobayashi, J. Normand, 
 K. Raghavachari, A. P. Rendell, J. C. Burant, S. S. Iyengar, 
 J. Tomasi, M. Cossi, J. M. Millam, M. Klene, C. Adamo, R. Cammi, 
 J. W. Ochterski, R. L. Martin, K. Morokuma, O. Farkas, 
 J. B. Foresman, and D. J. Fox, Gaussian, Inc., Wallingford CT, 2016.
 
 ******************************************
 Gaussian 16:  EM64L-G16RevA.03 25-Dec-2016
                 5-May-2021 
 ******************************************
 %chk=gaussian_00294_1_2.chk
 %nproc=2
 Will use up to    2 processors via shared memory.
 %mem=4000Mb
 -------------
 #p 6-31g* mp2
 -------------
 1/38=1,172=1/1;
 2/12=2,17=6,18=5,40=1/2;
 3/5=1,6=6,7=1,11=9,25=1,30=1/1,2,3;
 4//1;
 5/5=2,38=5/2;
 8/10=2/1;
 9/16=-3/6;
 6/7=2,8=2,9=2,10=2/1;
 99/5=1,9=1/99;
 Leave Link    1 at Wed May  5 21:41:12 2021, MaxMem=   524288000 cpu:               0.1 elap:               0.1
 (Enter /opt/gaussian/g16_legacy/l101.exe)
 ------------------------------------------------------
 Input file generated by CHIRIPA (05-May-2021 14:53:11)
 ------------------------------------------------------
 Symbolic Z-matrix:
 Charge =  0 Multiplicity = 1
 C                    -0.666    -0.374     0. 
 C                    -1.882     0.553     0. 
 C                    -3.207    -0.21      0. 
 H                    -0.713    -1.03     -0.88 
 H                    -0.713    -1.029     0.881 
 H                    -1.832     1.207    -0.88 
 H                    -1.832     1.207     0.88 
 H                    -3.283    -0.85      0.885 
 H                    -3.283    -0.85     -0.885 
 H                    -4.063     0.472     0. 
 C                     0.666     0.374     0. 
 C                     1.882    -0.553     0. 
 C                     3.207     0.21      0. 
 H                     0.713     1.029    -0.881 
 H                     0.713     1.03      0.88 
 H                     1.832    -1.207    -0.88 
 H                     1.832    -1.207     0.88 
 H                     3.283     0.85      0.885 
 H                     3.283     0.85     -0.885 
 H                     4.063    -0.472     0. 
 C                    -7.0411   -3.8014   -4.56282 
 C                    -6.29071  -4.97276  -4.70888 
 C                    -4.96147  -5.02273  -4.27857 
 C                    -4.41186  -3.8777   -3.70401 
 C                    -5.13363  -2.69577  -3.54473 
 C                    -6.46119  -2.66864  -3.98223 
 H                    -8.07303  -3.77145  -4.89988 
 H                    -6.73848  -5.854    -5.15941 
 H                    -4.35773  -5.91645  -4.37951 
 H                    -4.65983  -1.83333  -3.09183 
 H                    -7.04156  -1.75756  -3.86753 
 N                    -3.00554  -3.91852  -3.24466 
 O                    -2.54451  -2.89622  -2.74167 
 O                    -2.39093  -4.97203  -3.3963 
 
 ITRead=  0  0  0  0  0  0  0  0  0  0  0  0  0  0  0  0  0  0  0  0
 ITRead=  0  0  0  0  0  0  0  0  0  0  0  0  0  0
 MicOpt= -1 -1 -1 -1 -1 -1 -1 -1 -1 -1 -1 -1 -1 -1 -1 -1 -1 -1 -1 -1
 MicOpt= -1 -1 -1 -1 -1 -1 -1 -1 -1 -1 -1 -1 -1 -1
 NAtoms=     34 NQM=       34 NQMF=       0 NMMI=      0 NMMIF=      0
                NMic=       0 NMicF=      0.
                    Isotopes and Nuclear Properties:
 (Nuclear quadrupole moments (NQMom) in fm**2, nuclear magnetic moments (NMagM)
  in nuclear magnetons)

  Atom         1           2           3           4           5           6           7           8           9          10
 IAtWgt=          12          12          12           1           1           1           1           1           1           1
 AtmWgt=  12.0000000  12.0000000  12.0000000   1.0078250   1.0078250   1.0078250   1.0078250   1.0078250   1.0078250   1.0078250
 NucSpn=           0           0           0           1           1           1           1           1           1           1
 AtZEff=  -0.0000000  -0.0000000  -0.0000000  -0.0000000  -0.0000000  -0.0000000  -0.0000000  -0.0000000  -0.0000000  -0.0000000
 NQMom=    0.0000000   0.0000000   0.0000000   0.0000000   0.0000000   0.0000000   0.0000000   0.0000000   0.0000000   0.0000000
 NMagM=    0.0000000   0.0000000   0.0000000   2.7928460   2.7928460   2.7928460   2.7928460   2.7928460   2.7928460   2.7928460
 AtZNuc=   6.0000000   6.0000000   6.0000000   1.0000000   1.0000000   1.0000000   1.0000000   1.0000000   1.0000000   1.0000000

  Atom        11          12          13          14          15          16          17          18          19          20
 IAtWgt=          12          12          12           1           1           1           1           1           1           1
 AtmWgt=  12.0000000  12.0000000  12.0000000   1.0078250   1.0078250   1.0078250   1.0078250   1.0078250   1.0078250   1.0078250
 NucSpn=           0           0           0           1           1           1           1           1           1           1
 AtZEff=  -0.0000000  -0.0000000  -0.0000000  -0.0000000  -0.0000000  -0.0000000  -0.0000000  -0.0000000  -0.0000000  -0.0000000
 NQMom=    0.0000000   0.0000000   0.0000000   0.0000000   0.0000000   0.0000000   0.0000000   0.0000000   0.0000000   0.0000000
 NMagM=    0.0000000   0.0000000   0.0000000   2.7928460   2.7928460   2.7928460   2.7928460   2.7928460   2.7928460   2.7928460
 AtZNuc=   6.0000000   6.0000000   6.0000000   1.0000000   1.0000000   1.0000000   1.0000000   1.0000000   1.0000000   1.0000000

  Atom        21          22          23          24          25          26          27          28          29          30
 IAtWgt=          12          12          12          12          12          12           1           1           1           1
 AtmWgt=  12.0000000  12.0000000  12.0000000  12.0000000  12.0000000  12.0000000   1.0078250   1.0078250   1.0078250   1.0078250
 NucSpn=           0           0           0           0           0           0           1           1           1           1
 AtZEff=  -0.0000000  -0.0000000  -0.0000000  -0.0000000  -0.0000000  -0.0000000  -0.0000000  -0.0000000  -0.0000000  -0.0000000
 NQMom=    0.0000000   0.0000000   0.0000000   0.0000000   0.0000000   0.0000000   0.0000000   0.0000000   0.0000000   0.0000000
 NMagM=    0.0000000   0.0000000   0.0000000   0.0000000   0.0000000   0.0000000   2.7928460   2.7928460   2.7928460   2.7928460
 AtZNuc=   6.0000000   6.0000000   6.0000000   6.0000000   6.0000000   6.0000000   1.0000000   1.0000000   1.0000000   1.0000000

  Atom        31          32          33          34
 IAtWgt=           1          14          16          16
 AtmWgt=   1.0078250  14.0030740  15.9949146  15.9949146
 NucSpn=           1           2           0           0
 AtZEff=  -0.0000000  -0.0000000  -0.0000000  -0.0000000
 NQMom=    0.0000000   2.0440000   0.0000000   0.0000000
 NMagM=    2.7928460   0.4037610   0.0000000   0.0000000
 AtZNuc=   1.0000000   7.0000000   8.0000000   8.0000000
 Leave Link  101 at Wed May  5 21:41:13 2021, MaxMem=   524288000 cpu:               0.4 elap:               0.4
 (Enter /opt/gaussian/g16_legacy/l202.exe)
                          Input orientation:                          
 ---------------------------------------------------------------------
 Center     Atomic      Atomic             Coordinates (Angstroms)
 Number     Number       Type             X           Y           Z
 ---------------------------------------------------------------------
      1          6           0       -0.666000   -0.374000    0.000000
      2          6           0       -1.882000    0.553000    0.000000
      3          6           0       -3.207000   -0.210000    0.000000
      4          1           0       -0.713000   -1.030000   -0.880000
      5          1           0       -0.713000   -1.029000    0.881000
      6          1           0       -1.832000    1.207000   -0.880000
      7          1           0       -1.832000    1.207000    0.880000
      8          1           0       -3.283000   -0.850000    0.885000
      9          1           0       -3.283000   -0.850000   -0.885000
     10          1           0       -4.063000    0.472000    0.000000
     11          6           0        0.666000    0.374000    0.000000
     12          6           0        1.882000   -0.553000    0.000000
     13          6           0        3.207000    0.210000    0.000000
     14          1           0        0.713000    1.029000   -0.881000
     15          1           0        0.713000    1.030000    0.880000
     16          1           0        1.832000   -1.207000   -0.880000
     17          1           0        1.832000   -1.207000    0.880000
     18          1           0        3.283000    0.850000    0.885000
     19          1           0        3.283000    0.850000   -0.885000
     20          1           0        4.063000   -0.472000    0.000000
     21          6           0       -7.041101   -3.801395   -4.562817
     22          6           0       -6.290713   -4.972764   -4.708877
     23          6           0       -4.961469   -5.022734   -4.278574
     24          6           0       -4.411858   -3.877703   -3.704011
     25          6           0       -5.133634   -2.695773   -3.544729
     26          6           0       -6.461189   -2.668635   -3.982233
     27          1           0       -8.073033   -3.771445   -4.899884
     28          1           0       -6.738475   -5.854000   -5.159407
     29          1           0       -4.357731   -5.916451   -4.379508
     30          1           0       -4.659829   -1.833329   -3.091830
     31          1           0       -7.041558   -1.757560   -3.867529
     32          7           0       -3.005541   -3.918519   -3.244656
     33          8           0       -2.544511   -2.896223   -2.741665
     34          8           0       -2.390928   -4.972033   -3.396304
 ---------------------------------------------------------------------
                    Distance matrix (angstroms):
                    1          2          3          4          5
     1  C    0.000000
     2  C    1.529047   0.000000
     3  C    2.546287   1.528985   0.000000
     4  H    1.098610   2.155655   2.768905   0.000000
     5  H    1.098815   2.155330   2.768927   1.761000   0.000000
     6  H    2.152561   1.097550   2.161692   2.501266   3.058264
     7  H    2.152561   1.097550   2.161692   3.058420   2.500372
     8  H    2.803300   2.171275   1.094806   3.122903   2.576229
     9  H    2.803300   2.171275   1.094806   2.576301   3.123411
    10  H    3.500761   2.182504   1.094468   3.775302   3.775137
    11  C    1.527654   2.554280   3.916782   2.155750   2.155507
    12  C    2.554280   3.923128   5.100546   2.781358   2.781504
    13  C    3.916782   5.100546   6.427736   4.204569   4.204484
    14  H    2.155507   2.781504   4.204484   2.504587   3.061615
    15  H    2.155750   2.781358   4.204569   3.061809   2.504587
    16  H    2.776381   4.203070   5.211519   2.551148   3.099973
    17  H    2.776381   4.203070   5.211519   3.099347   2.551217
    18  H    4.228002   5.248682   6.635279   4.755801   4.415730
    19  H    4.228002   5.248682   6.635279   4.416157   4.755777
    20  H    4.730015   6.032715   7.274720   4.888347   4.888413
    21  C    8.556182   8.148397   6.958286   7.828706   8.795805
    22  C    8.657918   8.493782   7.373380   7.830490   8.826714
    23  C    7.639894   7.673209   6.674336   6.748460   7.785923
    24  C    6.326696   6.304840   5.350087   5.455823   6.543622
    25  C    6.157555   5.804546   4.738786   5.423798   6.473578
    26  C    7.396468   6.870668   5.700247   6.734289   7.705914
    27  H    9.508714   9.002143   7.769880   8.822986   9.752421
    28  H    9.670824   9.552721   8.422917   8.825568   9.801709
    29  H    7.970429   8.195311   7.284769   7.029084   8.052589
    30  H    5.257350   4.792735   3.782238   4.595105   5.657542
    31  H    7.584178   6.849636   5.661851   7.036002   7.945437
    32  N    5.344610   5.637785   4.931682   4.380740   5.534085
    33  O    4.172186   4.455647   3.895050   3.209831   4.468183
    34  O    5.970943   6.505373   5.905744   4.968587   6.054608
                    6          7          8          9         10
     6  H    0.000000
     7  H    1.760000   0.000000
     8  H    3.074390   2.517275   0.000000
     9  H    2.517275   3.074390   1.770000   0.000000
    10  H    2.508383   2.508383   1.771810   1.771810   0.000000
    11  C    2.776381   2.776381   4.228002   4.228002   4.730015
    12  C    4.203070   4.203070   5.248682   5.248682   6.032715
    13  C    5.211519   5.211519   6.635279   6.635279   7.274720
    14  H    2.551217   3.099973   4.755777   4.415730   4.888413
    15  H    3.099347   2.551148   4.416157   4.755801   4.888347
    16  H    4.387743   4.727567   5.422721   5.127446   6.192291
    17  H    4.727567   4.387743   5.127446   5.422721   6.192291
    18  H    5.422721   5.127446   6.782504   7.009654   7.408767
    19  H    5.127446   5.422721   7.009654   6.782504   7.408767
    20  H    6.192291   6.192291   7.408767   7.408767   8.180649
    21  C    8.110604   9.046713   7.246569   6.029958   6.924615
    22  C    8.528183   9.450140   7.571987   6.376955   7.535362
    23  C    7.755867   8.672603   6.847734   5.634298   7.021791
    24  C    6.362775   7.315943   5.612515   4.288138   5.723750
    25  C    5.764825   6.760965   5.143367   3.729059   4.873002
    26  C    6.787767   7.751854   6.090835   4.795954   5.610087
    27  H    8.938393   9.856088   8.058793   6.899170   7.622077
    28  H    9.604402  10.507410   8.574099   7.433093   8.590455
    29  H    8.328831   9.207893   7.385054   6.247844   7.751081
    30  H    4.704509   5.745925   4.321779   2.780772   3.902584
    31  H    6.697271   7.646381   6.126741   4.883227   5.366612
    32  N    5.765392   6.682883   5.152364   3.880821   5.560816
    33  O    4.561788   5.519109   4.229077   2.860000   4.600811
    34  O    6.695120   7.535226   6.009702   4.908523   6.630852
                   11         12         13         14         15
    11  C    0.000000
    12  C    1.529047   0.000000
    13  C    2.546287   1.528985   0.000000
    14  H    1.098815   2.155330   2.768927   0.000000
    15  H    1.098610   2.155655   2.768905   1.761000   0.000000
    16  H    2.152561   1.097550   2.161692   2.500372   3.058420
    17  H    2.152561   1.097550   2.161692   3.058264   2.501266
    18  H    2.803300   2.171275   1.094806   3.123411   2.576301
    19  H    2.803300   2.171275   1.094806   2.576229   3.122903
    20  H    3.500761   2.182504   1.094468   3.775137   3.775302
    21  C    9.881934  10.535326  11.913613   9.849598  10.634506
    22  C    9.957774  10.416385  11.800047   9.986281  10.785208
    23  C    8.893781   9.225930  10.602433   8.964742   9.769651
    24  C    7.588235   8.024088   9.406169   7.636052   8.447655
    25  C    7.458174   8.147128   9.517079   7.426474   8.224521
    26  C    8.712785   9.483823  10.845211   8.646337   9.422855
    27  H   10.842706  11.552919  12.926713  10.788423  11.560939
    28  H   10.965114  11.359255  12.739861  11.009311  11.806285
    29  H    9.164482   9.320995  10.674205   9.283919  10.081067
    30  H    6.541878   7.348073   8.696068   6.476727   7.269208
    31  H    8.883005   9.799930  11.129331   8.764556   9.510136
    32  N    6.514117   6.763325   8.134379   6.625131   7.438291
    33  O    5.340268   5.709765   7.088387   5.429625   6.256442
    34  O    7.032763   7.022866   8.350158   7.209266   7.996596
                   16         17         18         19         20
    16  H    0.000000
    17  H    1.760000   0.000000
    18  H    3.074390   2.517275   0.000000
    19  H    2.517275   3.074390   1.770000   0.000000
    20  H    2.508383   2.508383   1.771810   1.771810   0.000000
    21  C    9.951178  10.727864  12.565876  11.905834  12.458139
    22  C    9.737543  10.554383  12.524058  11.839873  12.232325
    23  C    8.500668   9.344621  11.363220  10.675983  10.975264
    24  C    7.354825   8.193386  10.130204   9.460911   9.856050
    25  C    7.605083   8.385388  10.150603   9.512434  10.103878
    26  C    8.974253   9.723923  11.446395  10.813088  11.464813
    27  H   10.992976  11.751303  13.556627  12.901028  13.497351
    28  H   10.647111  11.468308  13.487343  12.792347  13.124682
    29  H    8.528673   9.389043  11.483931  10.787827  10.942159
    30  H    6.886822   7.636201   9.279222   8.669422   9.354164
    31  H    9.379151  10.078799  11.661149  11.058542  11.828848
    32  N    6.028743   6.911362   8.907221   8.237263   8.507089
    33  O    5.047090   5.926532   7.819640   7.172257   7.553329
    34  O    6.191961   7.091923   9.187986   8.508594   8.569619
                   21         22         23         24         25
    21  C    0.000000
    22  C    1.398757   0.000000
    23  C    2.428442   1.398051   0.000000
    24  C    2.767000   2.395623   1.394020   0.000000
    25  C    2.428443   2.806913   2.446000   1.394019   0.000000
    26  C    1.398757   2.422000   2.806913   2.395623   1.398052
    27  H    1.085999   2.157850   3.410804   3.853000   3.410804
    28  H    2.158863   1.086299   2.150493   3.381874   3.893212
    29  H    3.421628   2.176109   1.083244   2.148423   3.416379
    30  H    3.421629   3.889817   3.416380   2.148423   1.083244
    31  H    2.158862   3.407223   3.893211   3.381873   2.150492
    32  N    4.247000   3.748030   2.472637   1.480000   2.472637
    33  O    4.935104   4.713383   3.567327   2.318706   2.718207
    34  O    4.935104   4.114750   2.718207   2.318706   3.567328
                   26         27         28         29         30
    26  C    0.000000
    27  H    2.157849   0.000000
    28  H    3.407224   2.487053   0.000000
    29  H    3.889816   4.321494   2.506010   0.000000
    30  H    2.176109   4.321494   4.976087   4.292000   0.000000
    31  H    1.086298   2.487053   4.305999   4.976085   2.506009
    32  N    3.748031   5.333000   4.620298   2.666091   2.666091
    33  O    4.114751   5.999040   5.673029   3.884852   2.393100
    34  O    4.713383   5.999040   4.773632   2.393100   3.884853
                   31         32         33         34
    31  H    0.000000
    32  N    4.620297   0.000000
    33  O    4.773631   1.229080   0.000000
    34  O    5.673028   1.229080   2.182001   0.000000
 Stoichiometry    C12H19NO2
 Framework group  C1[X(C12H19NO2)]
 Deg. of freedom    96
 Full point group                 C1      NOp   1
 Largest Abelian subgroup         C1      NOp   1
 Largest concise Abelian subgroup C1      NOp   1
                         Standard orientation:                         
 ---------------------------------------------------------------------
 Center     Atomic      Atomic             Coordinates (Angstroms)
 Number     Number       Type             X           Y           Z
 ---------------------------------------------------------------------
      1          6           0        3.298412    0.685460    0.397025
      2          6           0        2.829841    2.108133    0.089731
      3          6           0        1.486490    2.441379    0.739462
      4          1           0        2.536298   -0.027127    0.053010
      5          1           0        3.375381    0.559378    1.485865
      6          1           0        2.755108    2.231921   -0.998252
      7          1           0        3.593246    2.817407    0.434344
      8          1           0        1.550851    2.345678    1.828177
      9          1           0        0.707951    1.756865    0.387441
     10          1           0        1.170468    3.463072    0.506796
     11          6           0        4.639921    0.337391   -0.245571
     12          6           0        5.108493   -1.085281    0.061722
     13          6           0        6.451844   -1.418528   -0.588008
     14          1           0        4.562952    0.463474   -1.334412
     15          1           0        5.402036    1.049979    0.098443
     16          1           0        4.345088   -1.794556   -0.282891
     17          1           0        5.183225   -1.209070    1.149705
     18          1           0        7.230383   -0.734014   -0.235987
     19          1           0        6.387483   -1.322826   -1.676723
     20          1           0        6.767866   -2.440221   -0.355342
     21          6           0       -5.223401    0.938227   -0.326206
     22          6           0       -5.285289   -0.399626    0.077327
     23          6           0       -4.115698   -1.150449    0.228557
     24          6           0       -2.895717   -0.528883   -0.033345
     25          6           0       -2.801302    0.802113   -0.436861
     26          6           0       -3.983790    1.533777   -0.581562
     27          1           0       -6.136976    1.514042   -0.441149
     28          1           0       -6.246593   -0.864747    0.276332
     29          1           0       -4.134709   -2.187882    0.539665
     30          1           0       -1.828336    1.238281   -0.627946
     31          1           0       -3.932697    2.572591   -0.895087
     32          7           0       -1.650697   -1.313604    0.123300
     33          8           0       -0.588295   -0.742797   -0.113595
     34          8           0       -1.760826   -2.484616    0.480005
 ---------------------------------------------------------------------
 Rotational constants (GHZ):           1.0646720           0.1631607           0.1448100
 Leave Link  202 at Wed May  5 21:41:13 2021, MaxMem=   524288000 cpu:               0.1 elap:               0.1
 (Enter /opt/gaussian/g16_legacy/l301.exe)
 Standard basis: 6-31G(d) (6D, 7F)
 Ernie: Thresh=  0.10000D-02 Tol=  0.10000D-05 Strict=F.
 There are   263 symmetry adapted cartesian basis functions of A   symmetry.
 There are   263 symmetry adapted basis functions of A   symmetry.
   263 basis functions,   496 primitive gaussians,   263 cartesian basis functions
    57 alpha electrons       57 beta electrons
       nuclear repulsion energy       898.5717475981 Hartrees.
 IExCor=    0 DFT=F Ex=HF Corr=None ExCW=0 ScaHFX=  1.000000
 ScaDFX=  1.000000  1.000000  1.000000  1.000000 ScalE2=  1.000000  1.000000
 IRadAn=      5 IRanWt=     -1 IRanGd=            0 ICorTp=0 IEmpDi=  4
 NAtoms=   34 NActive=   34 NUniq=   34 SFac= 1.00D+00 NAtFMM=   60 NAOKFM=F Big=F
 Integral buffers will be    131072 words long.
 Raffenetti 1 integral format.
 Two-electron integral symmetry is turned on.
 Leave Link  301 at Wed May  5 21:41:13 2021, MaxMem=   524288000 cpu:               0.3 elap:               0.3
 (Enter /opt/gaussian/g16_legacy/l302.exe)
 NPDir=0 NMtPBC=     1 NCelOv=     1 NCel=       1 NClECP=     1 NCelD=      1
         NCelK=      1 NCelE2=     1 NClLst=     1 CellRange=     0.0.
 One-electron integrals computed using PRISM.
 One-electron integral symmetry used in STVInt
 NBasis=   263 RedAO= T EigKep=  4.75D-04  NBF=   263
 NBsUse=   263 1.00D-06 EigRej= -1.00D+00 NBFU=   263
 Leave Link  302 at Wed May  5 21:41:14 2021, MaxMem=   524288000 cpu:               0.8 elap:               0.6
 (Enter /opt/gaussian/g16_legacy/l303.exe)
 DipDrv:  MaxL=1.
 Leave Link  303 at Wed May  5 21:41:14 2021, MaxMem=   524288000 cpu:               0.2 elap:               0.2
 (Enter /opt/gaussian/g16_legacy/l401.exe)
 ExpMin= 1.61D-01 ExpMax= 5.48D+03 ExpMxC= 8.25D+02 IAcc=3 IRadAn=         5 AccDes= 0.00D+00
 Harris functional with IExCor=  205 and IRadAn=       5 diagonalized for initial guess.
 HarFok:  IExCor=  205 AccDes= 0.00D+00 IRadAn=         5 IDoV= 1 UseB2=F ITyADJ=14
 ICtDFT=  3500011 ScaDFX=  1.000000  1.000000  1.000000  1.000000
 FoFCou: FMM=F IPFlag=           0 FMFlag=      100000 FMFlg1=           0
         NFxFlg=           0 DoJE=T BraDBF=F KetDBF=T FulRan=T
         wScrn=  0.000000 ICntrl=       500 IOpCl=  0 I1Cent=   200000004 NGrid=           0
         NMat0=    1 NMatS0=      1 NMatT0=    0 NMatD0=    1 NMtDS0=    0 NMtDT0=    0
 Petite list used in FoFCou.
 Harris En= -670.658054127359    
 JPrj=0 DoOrth=F DoCkMO=F.
 Leave Link  401 at Wed May  5 21:41:22 2021, MaxMem=   524288000 cpu:              14.0 elap:               8.1
 (Enter /opt/gaussian/g16_legacy/l502.exe)
 Integral symmetry usage will be decided dynamically.
 Closed shell SCF:
 Using DIIS extrapolation, IDIIS=  1040.
 NGot=   524288000 LenX=   524144919 LenY=   524075309
 Requested convergence on RMS density matrix=1.00D-08 within 128 cycles.
 Requested convergence on MAX density matrix=1.00D-06.
 Requested convergence on             energy=1.00D-06.
 No special actions if energy rises.
 Fock matrices will be formed incrementally for  20 cycles.
 Integral accuracy reduced to 1.0D-05 until final iterations.

 Cycle   1  Pass 0  IDiag  1:
 FoFJK:  IHMeth= 1 ICntrl=       0 DoSepK=F KAlg= 0 I1Cent=           0 FoldK=F
 IRaf= 700000000 NMat=       1 IRICut=       1 DoRegI=T DoRafI=F ISym2E= 0 IDoP0=0 IntGTp=1.
 FoFCou: FMM=F IPFlag=           0 FMFlag=      100000 FMFlg1=           0
         NFxFlg=           0 DoJE=F BraDBF=F KetDBF=F FulRan=T
         wScrn=  0.000000 ICntrl=         0 IOpCl=  0 I1Cent=           0 NGrid=           0
         NMat0=    1 NMatS0=      1 NMatT0=    0 NMatD0=    1 NMtDS0=    0 NMtDT0=    0
 Symmetry not used in FoFCou.
 E= -668.738889206790    
 DIIS: error= 6.30D-02 at cycle   1 NSaved=   1.
 NSaved= 1 IEnMin= 1 EnMin= -668.738889206790     IErMin= 1 ErrMin= 6.30D-02
 ErrMax= 6.30D-02  0.00D+00 EMaxC= 1.00D-01 BMatC= 1.18D+00 BMatP= 1.18D+00
 IDIUse=3 WtCom= 3.70D-01 WtEn= 6.30D-01
 Coeff-Com:  0.100D+01
 Coeff-En:   0.100D+01
 Coeff:      0.100D+01
 Gap=     0.556 Goal=   None    Shift=    0.000
 GapD=    0.556 DampG=2.000 DampE=0.500 DampFc=1.0000 IDamp=-1.
 RMSDP=4.61D-03 MaxDP=1.18D-01              OVMax= 1.52D-01

 Cycle   2  Pass 0  IDiag  1:
 RMSU=  4.48D-03    CP:  9.48D-01
 E= -669.358126971042     Delta-E=       -0.619237764252 Rises=F Damp=F
 DIIS: error= 3.64D-02 at cycle   2 NSaved=   2.
 NSaved= 2 IEnMin= 2 EnMin= -669.358126971042     IErMin= 2 ErrMin= 3.64D-02
 ErrMax= 3.64D-02  0.00D+00 EMaxC= 1.00D-01 BMatC= 2.19D-01 BMatP= 1.18D+00
 IDIUse=3 WtCom= 6.36D-01 WtEn= 3.64D-01
 Coeff-Com:  0.247D+00 0.753D+00
 Coeff-En:   0.000D+00 0.100D+01
 Coeff:      0.157D+00 0.843D+00
 Gap=     0.564 Goal=   None    Shift=    0.000
 RMSDP=1.86D-03 MaxDP=8.79D-02 DE=-6.19D-01 OVMax= 1.25D-01

 Cycle   3  Pass 0  IDiag  1:
 RMSU=  1.47D-03    CP:  9.57D-01  7.49D-01
 E= -669.503996029735     Delta-E=       -0.145869058694 Rises=F Damp=F
 DIIS: error= 1.97D-02 at cycle   3 NSaved=   3.
 NSaved= 3 IEnMin= 3 EnMin= -669.503996029735     IErMin= 3 ErrMin= 1.97D-02
 ErrMax= 1.97D-02  0.00D+00 EMaxC= 1.00D-01 BMatC= 4.18D-02 BMatP= 2.19D-01
 IDIUse=3 WtCom= 8.03D-01 WtEn= 1.97D-01
 Coeff-Com: -0.964D-02 0.286D+00 0.724D+00
 Coeff-En:   0.000D+00 0.000D+00 0.100D+01
 Coeff:     -0.775D-02 0.229D+00 0.778D+00
 Gap=     0.426 Goal=   None    Shift=    0.000
 RMSDP=6.53D-04 MaxDP=3.50D-02 DE=-1.46D-01 OVMax= 5.54D-02

 Cycle   4  Pass 0  IDiag  1:
 RMSU=  4.11D-04    CP:  9.55D-01  8.36D-01  7.80D-01
 E= -669.533167145037     Delta-E=       -0.029171115302 Rises=F Damp=F
 DIIS: error= 6.63D-03 at cycle   4 NSaved=   4.
 NSaved= 4 IEnMin= 4 EnMin= -669.533167145037     IErMin= 4 ErrMin= 6.63D-03
 ErrMax= 6.63D-03  0.00D+00 EMaxC= 1.00D-01 BMatC= 3.90D-03 BMatP= 4.18D-02
 IDIUse=3 WtCom= 9.34D-01 WtEn= 6.63D-02
 Coeff-Com: -0.134D-01 0.465D-01 0.306D+00 0.661D+00
 Coeff-En:   0.000D+00 0.000D+00 0.000D+00 0.100D+01
 Coeff:     -0.125D-01 0.434D-01 0.286D+00 0.683D+00
 Gap=     0.412 Goal=   None    Shift=    0.000
 RMSDP=1.91D-04 MaxDP=1.10D-02 DE=-2.92D-02 OVMax= 1.69D-02

 Cycle   5  Pass 0  IDiag  1:
 RMSU=  9.93D-05    CP:  9.55D-01  8.34D-01  8.62D-01  7.38D-01
 E= -669.536198111280     Delta-E=       -0.003030966243 Rises=F Damp=F
 DIIS: error= 4.99D-04 at cycle   5 NSaved=   5.
 NSaved= 5 IEnMin= 5 EnMin= -669.536198111280     IErMin= 5 ErrMin= 4.99D-04
 ErrMax= 4.99D-04  0.00D+00 EMaxC= 1.00D-01 BMatC= 7.57D-05 BMatP= 3.90D-03
 IDIUse=3 WtCom= 9.95D-01 WtEn= 4.99D-03
 Coeff-Com:  0.210D-02-0.213D-01-0.799D-01-0.152D-01 0.111D+01
 Coeff-En:   0.000D+00 0.000D+00 0.000D+00 0.000D+00 0.100D+01
 Coeff:      0.209D-02-0.212D-01-0.795D-01-0.151D-01 0.111D+01
 Gap=     0.413 Goal=   None    Shift=    0.000
 RMSDP=5.41D-05 MaxDP=1.99D-03 DE=-3.03D-03 OVMax= 4.92D-03

 Cycle   6  Pass 0  IDiag  1:
 RMSU=  2.48D-05    CP:  9.55D-01  8.37D-01  8.74D-01  8.27D-01  1.24D+00
 E= -669.536319900599     Delta-E=       -0.000121789318 Rises=F Damp=F
 DIIS: error= 2.15D-04 at cycle   6 NSaved=   6.
 NSaved= 6 IEnMin= 6 EnMin= -669.536319900599     IErMin= 6 ErrMin= 2.15D-04
 ErrMax= 2.15D-04  0.00D+00 EMaxC= 1.00D-01 BMatC= 5.84D-06 BMatP= 7.57D-05
 IDIUse=3 WtCom= 9.98D-01 WtEn= 2.15D-03
 Coeff-Com:  0.124D-02-0.695D-02-0.344D-01-0.472D-01 0.137D+00 0.950D+00
 Coeff-En:   0.000D+00 0.000D+00 0.000D+00 0.000D+00 0.000D+00 0.100D+01
 Coeff:      0.124D-02-0.693D-02-0.344D-01-0.471D-01 0.137D+00 0.951D+00
 Gap=     0.413 Goal=   None    Shift=    0.000
 RMSDP=1.73D-05 MaxDP=5.99D-04 DE=-1.22D-04 OVMax= 1.68D-03

 Cycle   7  Pass 0  IDiag  1:
 RMSU=  8.79D-06    CP:  9.55D-01  8.37D-01  8.77D-01  8.38D-01  1.36D+00
                    CP:  1.18D+00
 E= -669.536334854862     Delta-E=       -0.000014954263 Rises=F Damp=F
 DIIS: error= 1.16D-04 at cycle   7 NSaved=   7.
 NSaved= 7 IEnMin= 7 EnMin= -669.536334854862     IErMin= 7 ErrMin= 1.16D-04
 ErrMax= 1.16D-04  0.00D+00 EMaxC= 1.00D-01 BMatC= 1.17D-06 BMatP= 5.84D-06
 IDIUse=3 WtCom= 9.99D-01 WtEn= 1.16D-03
 Coeff-Com: -0.253D-03 0.262D-02 0.983D-02 0.289D-02-0.152D+00 0.192D-01
 Coeff-Com:  0.112D+01
 Coeff-En:   0.000D+00 0.000D+00 0.000D+00 0.000D+00 0.000D+00 0.000D+00
 Coeff-En:   0.100D+01
 Coeff:     -0.253D-03 0.261D-02 0.982D-02 0.288D-02-0.152D+00 0.192D-01
 Coeff:      0.112D+01
 Gap=     0.413 Goal=   None    Shift=    0.000
 RMSDP=8.94D-06 MaxDP=5.03D-04 DE=-1.50D-05 OVMax= 1.34D-03

 Initial convergence to 1.0D-05 achieved.  Increase integral accuracy.
 Cycle   8  Pass 1  IDiag  1:
 E= -669.536339703992     Delta-E=       -0.000004849130 Rises=F Damp=F
 DIIS: error= 7.06D-05 at cycle   1 NSaved=   1.
 NSaved= 1 IEnMin= 1 EnMin= -669.536339703992     IErMin= 1 ErrMin= 7.06D-05
 ErrMax= 7.06D-05  0.00D+00 EMaxC= 1.00D-01 BMatC= 3.69D-07 BMatP= 3.69D-07
 IDIUse=1 WtCom= 1.00D+00 WtEn= 0.00D+00
 Coeff-Com:  0.100D+01
 Coeff:      0.100D+01
 Gap=     0.413 Goal=   None    Shift=    0.000
 RMSDP=8.94D-06 MaxDP=5.03D-04 DE=-4.85D-06 OVMax= 5.29D-04

 Cycle   9  Pass 1  IDiag  1:
 RMSU=  9.22D-06    CP:  1.00D+00
 E= -669.536340714612     Delta-E=       -0.000001010620 Rises=F Damp=F
 DIIS: error= 4.24D-05 at cycle   2 NSaved=   2.
 NSaved= 2 IEnMin= 2 EnMin= -669.536340714612     IErMin= 2 ErrMin= 4.24D-05
 ErrMax= 4.24D-05  0.00D+00 EMaxC= 1.00D-01 BMatC= 1.29D-07 BMatP= 3.69D-07
 IDIUse=1 WtCom= 1.00D+00 WtEn= 0.00D+00
 Coeff-Com:  0.881D-01 0.912D+00
 Coeff:      0.881D-01 0.912D+00
 Gap=     0.413 Goal=   None    Shift=    0.000
 RMSDP=2.18D-06 MaxDP=9.99D-05 DE=-1.01D-06 OVMax= 3.49D-04

 Cycle  10  Pass 1  IDiag  1:
 RMSU=  2.00D-06    CP:  1.00D+00  1.09D+00
 E= -669.536341106702     Delta-E=       -0.000000392090 Rises=F Damp=F
 DIIS: error= 3.18D-05 at cycle   3 NSaved=   3.
 NSaved= 3 IEnMin= 3 EnMin= -669.536341106702     IErMin= 3 ErrMin= 3.18D-05
 ErrMax= 3.18D-05  0.00D+00 EMaxC= 1.00D-01 BMatC= 6.19D-08 BMatP= 1.29D-07
 IDIUse=1 WtCom= 1.00D+00 WtEn= 0.00D+00
 Coeff-Com: -0.396D+00 0.166D+00 0.123D+01
 Coeff:     -0.396D+00 0.166D+00 0.123D+01
 Gap=     0.413 Goal=   None    Shift=    0.000
 RMSDP=2.58D-06 MaxDP=9.40D-05 DE=-3.92D-07 OVMax= 3.68D-04

 Cycle  11  Pass 1  IDiag  1:
 RMSU=  1.59D-06    CP:  1.00D+00  1.22D+00  1.84D+00
 E= -669.536341406589     Delta-E=       -0.000000299887 Rises=F Damp=F
 DIIS: error= 1.05D-05 at cycle   4 NSaved=   4.
 NSaved= 4 IEnMin= 4 EnMin= -669.536341406589     IErMin= 4 ErrMin= 1.05D-05
 ErrMax= 1.05D-05  0.00D+00 EMaxC= 1.00D-01 BMatC= 1.02D-08 BMatP= 6.19D-08
 IDIUse=1 WtCom= 1.00D+00 WtEn= 0.00D+00
 Coeff-Com: -0.688D-01-0.246D+00 0.114D+00 0.120D+01
 Coeff:     -0.688D-01-0.246D+00 0.114D+00 0.120D+01
 Gap=     0.413 Goal=   None    Shift=    0.000
 RMSDP=1.47D-06 MaxDP=5.41D-05 DE=-3.00D-07 OVMax= 2.12D-04

 Cycle  12  Pass 1  IDiag  1:
 RMSU=  3.45D-07    CP:  1.00D+00  1.26D+00  2.44D+00  1.42D+00
 E= -669.536341462808     Delta-E=       -0.000000056220 Rises=F Damp=F
 DIIS: error= 2.86D-06 at cycle   5 NSaved=   5.
 NSaved= 5 IEnMin= 5 EnMin= -669.536341462808     IErMin= 5 ErrMin= 2.86D-06
 ErrMax= 2.86D-06  0.00D+00 EMaxC= 1.00D-01 BMatC= 1.62D-09 BMatP= 1.02D-08
 IDIUse=1 WtCom= 1.00D+00 WtEn= 0.00D+00
 Coeff-Com:  0.227D-01-0.121D+00-0.107D+00 0.491D+00 0.714D+00
 Coeff:      0.227D-01-0.121D+00-0.107D+00 0.491D+00 0.714D+00
 Gap=     0.413 Goal=   None    Shift=    0.000
 RMSDP=2.69D-07 MaxDP=1.17D-05 DE=-5.62D-08 OVMax= 4.43D-05

 Cycle  13  Pass 1  IDiag  1:
 RMSU=  1.01D-07    CP:  1.00D+00  1.27D+00  2.54D+00  1.50D+00  8.21D-01
 E= -669.536341465522     Delta-E=       -0.000000002713 Rises=F Damp=F
 DIIS: error= 8.95D-07 at cycle   6 NSaved=   6.
 NSaved= 6 IEnMin= 6 EnMin= -669.536341465522     IErMin= 6 ErrMin= 8.95D-07
 ErrMax= 8.95D-07  0.00D+00 EMaxC= 1.00D-01 BMatC= 4.35D-11 BMatP= 1.62D-09
 IDIUse=1 WtCom= 1.00D+00 WtEn= 0.00D+00
 Coeff-Com: -0.553D-03 0.365D-01 0.159D-01-0.161D+00-0.160D+00 0.127D+01
 Coeff:     -0.553D-03 0.365D-01 0.159D-01-0.161D+00-0.160D+00 0.127D+01
 Gap=     0.413 Goal=   None    Shift=    0.000
 RMSDP=5.78D-08 MaxDP=2.09D-06 DE=-2.71D-09 OVMax= 5.79D-06

 Cycle  14  Pass 1  IDiag  1:
 RMSU=  2.84D-08    CP:  1.00D+00  1.27D+00  2.55D+00  1.52D+00  8.90D-01
                    CP:  1.35D+00
 E= -669.536341465643     Delta-E=       -0.000000000121 Rises=F Damp=F
 DIIS: error= 4.08D-07 at cycle   7 NSaved=   7.
 NSaved= 7 IEnMin= 7 EnMin= -669.536341465643     IErMin= 7 ErrMin= 4.08D-07
 ErrMax= 4.08D-07  0.00D+00 EMaxC= 1.00D-01 BMatC= 7.14D-12 BMatP= 4.35D-11
 IDIUse=1 WtCom= 1.00D+00 WtEn= 0.00D+00
 Coeff-Com: -0.287D-02 0.214D-01 0.161D-01-0.910D-01-0.126D+00 0.261D+00
 Coeff-Com:  0.921D+00
 Coeff:     -0.287D-02 0.214D-01 0.161D-01-0.910D-01-0.126D+00 0.261D+00
 Coeff:      0.921D+00
 Gap=     0.413 Goal=   None    Shift=    0.000
 RMSDP=1.87D-08 MaxDP=1.03D-06 DE=-1.21D-10 OVMax= 2.30D-06

 Cycle  15  Pass 1  IDiag  1:
 RMSU=  1.02D-08    CP:  1.00D+00  1.27D+00  2.55D+00  1.52D+00  8.97D-01
                    CP:  1.46D+00  1.15D+00
 E= -669.536341465663     Delta-E=       -0.000000000020 Rises=F Damp=F
 DIIS: error= 8.26D-08 at cycle   8 NSaved=   8.
 NSaved= 8 IEnMin= 8 EnMin= -669.536341465663     IErMin= 8 ErrMin= 8.26D-08
 ErrMax= 8.26D-08  0.00D+00 EMaxC= 1.00D-01 BMatC= 1.32D-12 BMatP= 7.14D-12
 IDIUse=1 WtCom= 1.00D+00 WtEn= 0.00D+00
 Coeff-Com: -0.284D-03-0.204D-02 0.592D-03 0.898D-02-0.909D-03-0.124D+00
 Coeff-Com:  0.150D+00 0.968D+00
 Coeff:     -0.284D-03-0.204D-02 0.592D-03 0.898D-02-0.909D-03-0.124D+00
 Coeff:      0.150D+00 0.968D+00
 Gap=     0.413 Goal=   None    Shift=    0.000
 RMSDP=6.62D-09 MaxDP=3.51D-07 DE=-2.02D-11 OVMax= 5.43D-07

 SCF Done:  E(RHF) =  -669.536341466     A.U. after   15 cycles
            NFock= 15  Conv=0.66D-08     -V/T= 2.0024
 KE= 6.679565861141D+02 PE=-3.360584966538D+03 EE= 1.124520291360D+03
 Leave Link  502 at Wed May  5 21:42:11 2021, MaxMem=   524288000 cpu:              92.8 elap:              48.2
 (Enter /opt/gaussian/g16_legacy/l801.exe)
 ExpMin= 1.61D-01 ExpMax= 5.48D+03 ExpMxC= 8.25D+02 IAcc=3 IRadAn=         5 AccDes= 0.00D+00
 HarFok:  IExCor=  205 AccDes= 0.00D+00 IRadAn=         5 IDoV=-2 UseB2=F ITyADJ=14
 ICtDFT= 12500011 ScaDFX=  1.000000  1.000000  1.000000  1.000000
 Largest valence mixing into a core orbital is  1.95D-04
 Largest core mixing into a valence orbital is  4.00D-05
 Range of M.O.s used for correlation:    16   263
 NBasis=   263 NAE=    57 NBE=    57 NFC=    15 NFV=     0
 NROrb=    248 NOA=    42 NOB=    42 NVA=   206 NVB=   206
 Leave Link  801 at Wed May  5 21:42:12 2021, MaxMem=   524288000 cpu:               2.1 elap:               1.5
 (Enter /opt/gaussian/g16_legacy/l906.exe)
 FulOut=F Deriv=F AODrv=F NAtomX=    34
   MMem=         113  MDisk=          42 MDiskD=          42
  W3Min=     2275476 MinDsk=     2420380 NBas6D=         263
 NBas2D=       35121    NTT=       34716    LW2=     2000000
    MDV=   523953868 MDiskM=       27564 NBas2p=       22946
 Fully direct method using O(OVN) memory.
 IMap=   1   2   3   4   5   6   7   8   9  10  11  12  13  14  15  16  17  18  19  20
 IMap=  21  22  23  24  25  26  27  28  29  30  31  32  33  34  35  36  37  38  39  40
 IMap=  41  42
 JobTyp=1 Pass  1:  I=   1 to  42 NPSUse=  2 ParTrn=T ParDer=T DoDerP=F.
 Spin components of T(2) and E(2):
     alpha-alpha T2 =       0.9492906735D-01 E2=     -0.2719365332D+00
     alpha-beta  T2 =       0.5260200860D+00 E2=     -0.1547710669D+01
     beta-beta   T2 =       0.9492906735D-01 E2=     -0.2719365332D+00
 The integrals were generated   1 times.
 ANorm=    0.1309915349D+01
 E2 =    -0.2091583736D+01 EUMP2 =    -0.67162792520159D+03
 Leave Link  906 at Wed May  5 21:43:06 2021, MaxMem=   524288000 cpu:             105.6 elap:              53.1
 (Enter /opt/gaussian/g16_legacy/l601.exe)
 Copying SCF densities to generalized density rwf, IOpCl= 0 IROHF=0.

 **********************************************************************

            Population analysis using the SCF density.

 **********************************************************************

 Orbital symmetries:
       Occupied  (A) (A) (A) (A) (A) (A) (A) (A) (A) (A) (A) (A)
                 (A) (A) (A) (A) (A) (A) (A) (A) (A) (A) (A) (A)
                 (A) (A) (A) (A) (A) (A) (A) (A) (A) (A) (A) (A)
                 (A) (A) (A) (A) (A) (A) (A) (A) (A) (A) (A) (A)
                 (A) (A) (A) (A) (A) (A) (A) (A) (A)
       Virtual   (A) (A) (A) (A) (A) (A) (A) (A) (A) (A) (A) (A)
                 (A) (A) (A) (A) (A) (A) (A) (A) (A) (A) (A) (A)
                 (A) (A) (A) (A) (A) (A) (A) (A) (A) (A) (A) (A)
                 (A) (A) (A) (A) (A) (A) (A) (A) (A) (A) (A) (A)
                 (A) (A) (A) (A) (A) (A) (A) (A) (A) (A) (A) (A)
                 (A) (A) (A) (A) (A) (A) (A) (A) (A) (A) (A) (A)
                 (A) (A) (A) (A) (A) (A) (A) (A) (A) (A) (A) (A)
                 (A) (A) (A) (A) (A) (A) (A) (A) (A) (A) (A) (A)
                 (A) (A) (A) (A) (A) (A) (A) (A) (A) (A) (A) (A)
                 (A) (A) (A) (A) (A) (A) (A) (A) (A) (A) (A) (A)
                 (A) (A) (A) (A) (A) (A) (A) (A) (A) (A) (A) (A)
                 (A) (A) (A) (A) (A) (A) (A) (A) (A) (A) (A) (A)
                 (A) (A) (A) (A) (A) (A) (A) (A) (A) (A) (A) (A)
                 (A) (A) (A) (A) (A) (A) (A) (A) (A) (A) (A) (A)
                 (A) (A) (A) (A) (A) (A) (A) (A) (A) (A) (A) (A)
                 (A) (A) (A) (A) (A) (A) (A) (A) (A) (A) (A) (A)
                 (A) (A) (A) (A) (A) (A) (A) (A) (A) (A) (A) (A)
                 (A) (A)
 The electronic state is 1-A.
 Alpha  occ. eigenvalues --  -20.60987 -20.60982 -15.86018 -11.31297 -11.27857
 Alpha  occ. eigenvalues --  -11.27851 -11.27590 -11.26859 -11.26847 -11.20840
 Alpha  occ. eigenvalues --  -11.20756 -11.20526 -11.20392 -11.20357 -11.20266
 Alpha  occ. eigenvalues --   -1.60044  -1.39602  -1.19463  -1.08875  -1.07543
 Alpha  occ. eigenvalues --   -1.04854  -1.02742  -0.95725  -0.95195  -0.86266
 Alpha  occ. eigenvalues --   -0.86215  -0.82563  -0.78812  -0.77631  -0.77309
 Alpha  occ. eigenvalues --   -0.72247  -0.71352  -0.70575  -0.65125  -0.64861
 Alpha  occ. eigenvalues --   -0.64162  -0.62210  -0.60136  -0.58567  -0.56801
 Alpha  occ. eigenvalues --   -0.55363  -0.54479  -0.53187  -0.52948  -0.51948
 Alpha  occ. eigenvalues --   -0.51620  -0.49262  -0.48990  -0.48858  -0.47120
 Alpha  occ. eigenvalues --   -0.45829  -0.45050  -0.44874  -0.44700  -0.42973
 Alpha  occ. eigenvalues --   -0.37441  -0.36452
 Alpha virt. eigenvalues --    0.04894   0.11191   0.16397   0.20934   0.23648
 Alpha virt. eigenvalues --    0.24599   0.26389   0.27479   0.27800   0.28597
 Alpha virt. eigenvalues --    0.29243   0.30496   0.31566   0.32322   0.32582
 Alpha virt. eigenvalues --    0.33643   0.34208   0.34756   0.35396   0.35559
 Alpha virt. eigenvalues --    0.36453   0.36781   0.37140   0.39736   0.40547
 Alpha virt. eigenvalues --    0.41657   0.44040   0.44712   0.46128   0.46240
 Alpha virt. eigenvalues --    0.46932   0.48662   0.49818   0.51097   0.57373
 Alpha virt. eigenvalues --    0.67243   0.68764   0.69876   0.70130   0.70688
 Alpha virt. eigenvalues --    0.71782   0.72500   0.75868   0.77103   0.77833
 Alpha virt. eigenvalues --    0.78753   0.78896   0.79031   0.79624   0.79939
 Alpha virt. eigenvalues --    0.80672   0.81475   0.81859   0.84679   0.85754
 Alpha virt. eigenvalues --    0.87505   0.87753   0.87915   0.88682   0.93542
 Alpha virt. eigenvalues --    0.96506   0.96729   0.97028   0.99290   1.00372
 Alpha virt. eigenvalues --    1.01089   1.02331   1.04120   1.06324   1.06763
 Alpha virt. eigenvalues --    1.08257   1.08524   1.08533   1.09516   1.11905
 Alpha virt. eigenvalues --    1.13221   1.14527   1.15700   1.16866   1.17189
 Alpha virt. eigenvalues --    1.17770   1.18507   1.18941   1.19699   1.21211
 Alpha virt. eigenvalues --    1.21794   1.22262   1.22384   1.22555   1.22637
 Alpha virt. eigenvalues --    1.23950   1.24073   1.25804   1.26886   1.27265
 Alpha virt. eigenvalues --    1.27642   1.28692   1.31141   1.31416   1.34920
 Alpha virt. eigenvalues --    1.39940   1.40856   1.43592   1.46921   1.47834
 Alpha virt. eigenvalues --    1.52962   1.53699   1.57480   1.60620   1.65385
 Alpha virt. eigenvalues --    1.66642   1.67034   1.67311   1.68006   1.68351
 Alpha virt. eigenvalues --    1.72414   1.72467   1.73203   1.73467   1.73639
 Alpha virt. eigenvalues --    1.75425   1.80221   1.81966   1.93569   1.97607
 Alpha virt. eigenvalues --    1.99241   1.99939   2.04379   2.04487   2.06137
 Alpha virt. eigenvalues --    2.09968   2.12300   2.13098   2.14189   2.15621
 Alpha virt. eigenvalues --    2.18694   2.21522   2.21608   2.23304   2.24555
 Alpha virt. eigenvalues --    2.26469   2.26614   2.27122   2.28438   2.32722
 Alpha virt. eigenvalues --    2.33626   2.34761   2.36025   2.36797   2.37549
 Alpha virt. eigenvalues --    2.40379   2.42813   2.43341   2.43943   2.44540
 Alpha virt. eigenvalues --    2.45577   2.46810   2.57537   2.57670   2.57987
 Alpha virt. eigenvalues --    2.58489   2.59438   2.60494   2.67548   2.68489
 Alpha virt. eigenvalues --    2.68620   2.70459   2.77885   2.78538   2.80722
 Alpha virt. eigenvalues --    2.81574   2.83337   2.91643   2.91833   2.92114
 Alpha virt. eigenvalues --    2.92205   2.95829   2.99360   2.99759   3.04558
 Alpha virt. eigenvalues --    3.04683   3.06778   3.10342   3.14618   3.19470
 Alpha virt. eigenvalues --    3.23662   3.25711   3.30445   3.43166   3.52899
 Alpha virt. eigenvalues --    3.76871   4.12840   4.29779   4.38043   4.47866
 Alpha virt. eigenvalues --    4.50667   4.52919   4.56808   4.64205   4.71790
 Alpha virt. eigenvalues --    4.73665   4.76605   4.81098   4.88913   5.00910
 Alpha virt. eigenvalues --    5.08873
          Condensed to atoms (all electrons):
               1          2          3          4          5          6
     1  C    5.090564   0.351553  -0.056624   0.398421   0.395935  -0.043336
     2  C    0.351553   5.056405   0.340128  -0.040022  -0.042510   0.398522
     3  C   -0.056624   0.340128   5.115528  -0.002786  -0.002973  -0.040066
     4  H    0.398421  -0.040022  -0.002786   0.536242  -0.029820  -0.002815
     5  H    0.395935  -0.042510  -0.002973  -0.029820   0.569350   0.004599
     6  H   -0.043336   0.398522  -0.040066  -0.002815   0.004599   0.568377
     7  H   -0.044039   0.399131  -0.040636   0.004358  -0.002947  -0.032187
     8  H   -0.003746  -0.038727   0.390992   0.000177   0.002580   0.004218
     9  H   -0.003589  -0.036781   0.390029   0.001985   0.000186  -0.002699
    10  H    0.004469  -0.036421   0.391230  -0.000046  -0.000058  -0.002529
    11  C    0.353504  -0.051744   0.004091  -0.040347  -0.042351  -0.003289
    12  C   -0.051771   0.003999  -0.000084  -0.003146  -0.003277  -0.000065
    13  C    0.004066  -0.000086   0.000001  -0.000046  -0.000051  -0.000000
    14  H   -0.041528  -0.003383  -0.000053  -0.002701   0.004501   0.002439
    15  H   -0.041741  -0.003311  -0.000056   0.004284  -0.002803   0.000250
    16  H   -0.002974  -0.000064  -0.000000   0.002270   0.000231   0.000017
    17  H   -0.003154  -0.000064  -0.000000   0.000229   0.002393  -0.000003
    18  H   -0.000073  -0.000001  -0.000000  -0.000001   0.000013   0.000000
    19  H   -0.000070  -0.000000  -0.000000   0.000013  -0.000001  -0.000002
    20  H   -0.000086   0.000001  -0.000000   0.000001   0.000001   0.000000
    21  C   -0.000000  -0.000000   0.000000   0.000000   0.000000   0.000000
    22  C    0.000000   0.000000  -0.000000   0.000000  -0.000000  -0.000000
    23  C    0.000000  -0.000000   0.000000  -0.000000   0.000000   0.000000
    24  C   -0.000001  -0.000000   0.000005   0.000004   0.000000  -0.000000
    25  C    0.000000   0.000003  -0.000175  -0.000001  -0.000000   0.000000
    26  C    0.000000   0.000000  -0.000003  -0.000000  -0.000000  -0.000000
    27  H   -0.000000  -0.000000   0.000000   0.000000   0.000000  -0.000000
    28  H    0.000000   0.000000  -0.000000  -0.000000  -0.000000   0.000000
    29  H   -0.000000  -0.000000   0.000000  -0.000000   0.000000  -0.000000
    30  H    0.000001  -0.000013   0.000399  -0.000002   0.000000  -0.000000
    31  H    0.000000  -0.000000  -0.000000  -0.000000  -0.000000  -0.000000
    32  N    0.000008  -0.000000   0.000021  -0.000019  -0.000000   0.000000
    33  O   -0.000235   0.000013  -0.000854   0.001370  -0.000001  -0.000001
    34  O   -0.000000   0.000000  -0.000000   0.000001   0.000000   0.000000
               7          8          9         10         11         12
     1  C   -0.044039  -0.003746  -0.003589   0.004469   0.353504  -0.051771
     2  C    0.399131  -0.038727  -0.036781  -0.036421  -0.051744   0.003999
     3  C   -0.040636   0.390992   0.390029   0.391230   0.004091  -0.000084
     4  H    0.004358   0.000177   0.001985  -0.000046  -0.040347  -0.003146
     5  H   -0.002947   0.002580   0.000186  -0.000058  -0.042351  -0.003277
     6  H   -0.032187   0.004218  -0.002699  -0.002529  -0.003289  -0.000065
     7  H    0.570723  -0.002826   0.004041  -0.002644  -0.003262  -0.000069
     8  H   -0.002826   0.548829  -0.027508  -0.028280  -0.000070  -0.000001
     9  H    0.004041  -0.027508   0.526061  -0.028181  -0.000055  -0.000001
    10  H   -0.002644  -0.028280  -0.028181   0.552377  -0.000089   0.000001
    11  C   -0.003262  -0.000070  -0.000055  -0.000089   5.085031   0.352999
    12  C   -0.000069  -0.000001  -0.000001   0.000001   0.352999   5.059715
    13  C   -0.000000  -0.000000   0.000000  -0.000000  -0.057464   0.340133
    14  H    0.000250  -0.000001   0.000014   0.000001   0.395611  -0.041858
    15  H    0.002485   0.000014  -0.000002   0.000001   0.395118  -0.042189
    16  H   -0.000003   0.000000  -0.000002   0.000000  -0.043092   0.400031
    17  H    0.000017  -0.000002   0.000000   0.000000  -0.043717   0.399096
    18  H   -0.000002   0.000000  -0.000000  -0.000000  -0.003781  -0.038912
    19  H    0.000000  -0.000000   0.000000  -0.000000  -0.003782  -0.038809
    20  H    0.000000  -0.000000  -0.000000   0.000000   0.004407  -0.035830
    21  C   -0.000000  -0.000000   0.000000   0.000000  -0.000000   0.000000
    22  C   -0.000000   0.000000  -0.000000  -0.000000   0.000000  -0.000000
    23  C    0.000000  -0.000000  -0.000001   0.000000  -0.000000   0.000000
    24  C    0.000000  -0.000001  -0.000043   0.000000   0.000000   0.000000
    25  C   -0.000000   0.000008  -0.000199  -0.000008   0.000000  -0.000000
    26  C   -0.000000   0.000000   0.000014  -0.000000   0.000000  -0.000000
    27  H    0.000000  -0.000000   0.000000   0.000000   0.000000   0.000000
    28  H   -0.000000   0.000000   0.000000  -0.000000  -0.000000  -0.000000
    29  H    0.000000  -0.000000   0.000000   0.000000  -0.000000   0.000000
    30  H    0.000000  -0.000019   0.001227   0.000035  -0.000000   0.000000
    31  H    0.000000   0.000000  -0.000001  -0.000000  -0.000000  -0.000000
    32  N    0.000000   0.000000  -0.000032  -0.000000  -0.000000  -0.000000
    33  O   -0.000000   0.000003   0.003220   0.000007   0.000002  -0.000000
    34  O   -0.000000   0.000000   0.000004   0.000000   0.000000   0.000000
              13         14         15         16         17         18
     1  C    0.004066  -0.041528  -0.041741  -0.002974  -0.003154  -0.000073
     2  C   -0.000086  -0.003383  -0.003311  -0.000064  -0.000064  -0.000001
     3  C    0.000001  -0.000053  -0.000056  -0.000000  -0.000000  -0.000000
     4  H   -0.000046  -0.002701   0.004284   0.002270   0.000229  -0.000001
     5  H   -0.000051   0.004501  -0.002803   0.000231   0.002393   0.000013
     6  H   -0.000000   0.002439   0.000250   0.000017  -0.000003   0.000000
     7  H   -0.000000   0.000250   0.002485  -0.000003   0.000017  -0.000002
     8  H   -0.000000  -0.000001   0.000014   0.000000  -0.000002   0.000000
     9  H    0.000000   0.000014  -0.000002  -0.000002   0.000000  -0.000000
    10  H   -0.000000   0.000001   0.000001   0.000000   0.000000  -0.000000
    11  C   -0.057464   0.395611   0.395118  -0.043092  -0.043717  -0.003781
    12  C    0.340133  -0.041858  -0.042189   0.400031   0.399096  -0.038912
    13  C    5.098914  -0.002943  -0.002952  -0.039833  -0.040263   0.390736
    14  H   -0.002943   0.569916  -0.032075  -0.002969   0.004590   0.000164
    15  H   -0.002952  -0.032075   0.573258   0.004561  -0.002976   0.002658
    16  H   -0.039833  -0.002969   0.004561   0.556612  -0.031152   0.004198
    17  H   -0.040263   0.004590  -0.002976  -0.031152   0.565166  -0.002893
    18  H    0.390736   0.000164   0.002658   0.004198  -0.002893   0.552330
    19  H    0.391026   0.002650   0.000165  -0.002867   0.004239  -0.029407
    20  H    0.394015  -0.000059  -0.000060  -0.002484  -0.002505  -0.027773
    21  C   -0.000000   0.000000  -0.000000   0.000000  -0.000000   0.000000
    22  C    0.000000  -0.000000   0.000000  -0.000000   0.000000  -0.000000
    23  C   -0.000000   0.000000  -0.000000   0.000000   0.000000  -0.000000
    24  C    0.000000   0.000000  -0.000000  -0.000000  -0.000000   0.000000
    25  C    0.000000  -0.000000   0.000000   0.000000   0.000000  -0.000000
    26  C    0.000000  -0.000000   0.000000  -0.000000   0.000000  -0.000000
    27  H    0.000000   0.000000  -0.000000  -0.000000  -0.000000   0.000000
    28  H    0.000000  -0.000000   0.000000   0.000000   0.000000   0.000000
    29  H   -0.000000   0.000000  -0.000000   0.000000  -0.000000   0.000000
    30  H   -0.000000   0.000000  -0.000000   0.000000  -0.000000   0.000000
    31  H    0.000000   0.000000   0.000000  -0.000000   0.000000  -0.000000
    32  N   -0.000000  -0.000000   0.000000   0.000000   0.000000  -0.000000
    33  O    0.000000  -0.000000  -0.000000  -0.000001  -0.000000   0.000000
    34  O    0.000000  -0.000000  -0.000000  -0.000000  -0.000000   0.000000
              19         20         21         22         23         24
     1  C   -0.000070  -0.000086  -0.000000   0.000000   0.000000  -0.000001
     2  C   -0.000000   0.000001  -0.000000   0.000000  -0.000000  -0.000000
     3  C   -0.000000  -0.000000   0.000000  -0.000000   0.000000   0.000005
     4  H    0.000013   0.000001   0.000000   0.000000  -0.000000   0.000004
     5  H   -0.000001   0.000001   0.000000  -0.000000   0.000000   0.000000
     6  H   -0.000002   0.000000   0.000000  -0.000000   0.000000  -0.000000
     7  H    0.000000   0.000000  -0.000000  -0.000000   0.000000   0.000000
     8  H   -0.000000  -0.000000  -0.000000   0.000000  -0.000000  -0.000001
     9  H    0.000000  -0.000000   0.000000  -0.000000  -0.000001  -0.000043
    10  H   -0.000000   0.000000   0.000000  -0.000000   0.000000   0.000000
    11  C   -0.003782   0.004407  -0.000000   0.000000  -0.000000   0.000000
    12  C   -0.038809  -0.035830   0.000000  -0.000000   0.000000   0.000000
    13  C    0.391026   0.394015  -0.000000   0.000000  -0.000000   0.000000
    14  H    0.002650  -0.000059   0.000000  -0.000000   0.000000   0.000000
    15  H    0.000165  -0.000060  -0.000000   0.000000  -0.000000  -0.000000
    16  H   -0.002867  -0.002484   0.000000  -0.000000   0.000000  -0.000000
    17  H    0.004239  -0.002505  -0.000000   0.000000   0.000000  -0.000000
    18  H   -0.029407  -0.027773   0.000000  -0.000000  -0.000000   0.000000
    19  H    0.550616  -0.027632  -0.000000   0.000000   0.000000  -0.000000
    20  H   -0.027632   0.539038   0.000000  -0.000000  -0.000000   0.000000
    21  C   -0.000000   0.000000   4.875906   0.542417  -0.045773  -0.028728
    22  C    0.000000  -0.000000   0.542417   4.931312   0.523969  -0.040474
    23  C    0.000000  -0.000000  -0.045773   0.523969   4.917809   0.548511
    24  C   -0.000000   0.000000  -0.028728  -0.040474   0.548511   4.821944
    25  C    0.000000  -0.000000  -0.045456  -0.029899  -0.052871   0.548597
    26  C    0.000000  -0.000000   0.542014  -0.043664  -0.030309  -0.039006
    27  H    0.000000   0.000000   0.381300  -0.028002   0.002168   0.000217
    28  H    0.000000   0.000000  -0.027684   0.382565  -0.027329   0.001575
    29  H   -0.000000   0.000000   0.001939  -0.023976   0.368522  -0.019750
    30  H   -0.000000   0.000000   0.001878  -0.000038   0.002565  -0.019128
    31  H    0.000000  -0.000000  -0.027533   0.002322   0.000209   0.001511
    32  N    0.000000   0.000000   0.000001   0.001501  -0.044533   0.243493
    33  O   -0.000000   0.000000  -0.000009  -0.000023   0.003623  -0.087511
    34  O   -0.000000   0.000000  -0.000003   0.000763   0.003792  -0.087883
              25         26         27         28         29         30
     1  C    0.000000   0.000000  -0.000000   0.000000  -0.000000   0.000001
     2  C    0.000003   0.000000  -0.000000   0.000000  -0.000000  -0.000013
     3  C   -0.000175  -0.000003   0.000000  -0.000000   0.000000   0.000399
     4  H   -0.000001  -0.000000   0.000000  -0.000000  -0.000000  -0.000002
     5  H   -0.000000  -0.000000   0.000000  -0.000000   0.000000   0.000000
     6  H    0.000000  -0.000000  -0.000000   0.000000  -0.000000  -0.000000
     7  H   -0.000000  -0.000000   0.000000  -0.000000   0.000000   0.000000
     8  H    0.000008   0.000000  -0.000000   0.000000  -0.000000  -0.000019
     9  H   -0.000199   0.000014   0.000000   0.000000   0.000000   0.001227
    10  H   -0.000008  -0.000000   0.000000  -0.000000   0.000000   0.000035
    11  C    0.000000   0.000000   0.000000  -0.000000  -0.000000  -0.000000
    12  C   -0.000000  -0.000000   0.000000  -0.000000   0.000000   0.000000
    13  C    0.000000   0.000000   0.000000   0.000000  -0.000000  -0.000000
    14  H   -0.000000  -0.000000   0.000000  -0.000000   0.000000   0.000000
    15  H    0.000000   0.000000  -0.000000   0.000000  -0.000000  -0.000000
    16  H    0.000000  -0.000000  -0.000000   0.000000   0.000000   0.000000
    17  H    0.000000   0.000000  -0.000000   0.000000  -0.000000  -0.000000
    18  H   -0.000000  -0.000000   0.000000   0.000000   0.000000   0.000000
    19  H    0.000000   0.000000   0.000000   0.000000  -0.000000  -0.000000
    20  H   -0.000000  -0.000000   0.000000   0.000000   0.000000   0.000000
    21  C   -0.045456   0.542014   0.381300  -0.027684   0.001939   0.001878
    22  C   -0.029899  -0.043664  -0.028002   0.382565  -0.023976  -0.000038
    23  C   -0.052871  -0.030309   0.002168  -0.027329   0.368522   0.002565
    24  C    0.548597  -0.039006   0.000217   0.001575  -0.019750  -0.019128
    25  C    4.919908   0.521740   0.002189   0.000197   0.002573   0.367582
    26  C    0.521740   4.934240  -0.027937   0.002339  -0.000073  -0.024337
    27  H    0.002189  -0.027937   0.446535  -0.001196  -0.000071  -0.000071
    28  H    0.000197   0.002339  -0.001196   0.446976  -0.001114   0.000007
    29  H    0.002573  -0.000073  -0.000071  -0.001114   0.392538  -0.000074
    30  H    0.367582  -0.024337  -0.000071   0.000007  -0.000074   0.390010
    31  H   -0.027292   0.382555  -0.001186  -0.000093   0.000007  -0.001004
    32  N   -0.044676   0.001533   0.000002  -0.000049  -0.005403  -0.005062
    33  O    0.005361   0.000848  -0.000000   0.000000   0.000045   0.005861
    34  O    0.003695  -0.000027   0.000000  -0.000001   0.009071   0.000017
              31         32         33         34
     1  C    0.000000   0.000008  -0.000235  -0.000000
     2  C   -0.000000  -0.000000   0.000013   0.000000
     3  C   -0.000000   0.000021  -0.000854  -0.000000
     4  H   -0.000000  -0.000019   0.001370   0.000001
     5  H   -0.000000  -0.000000  -0.000001   0.000000
     6  H   -0.000000   0.000000  -0.000001   0.000000
     7  H    0.000000   0.000000  -0.000000  -0.000000
     8  H    0.000000   0.000000   0.000003   0.000000
     9  H   -0.000001  -0.000032   0.003220   0.000004
    10  H   -0.000000  -0.000000   0.000007   0.000000
    11  C   -0.000000  -0.000000   0.000002   0.000000
    12  C   -0.000000  -0.000000  -0.000000   0.000000
    13  C    0.000000  -0.000000   0.000000   0.000000
    14  H    0.000000  -0.000000  -0.000000  -0.000000
    15  H    0.000000   0.000000  -0.000000  -0.000000
    16  H   -0.000000   0.000000  -0.000001  -0.000000
    17  H    0.000000   0.000000  -0.000000  -0.000000
    18  H   -0.000000  -0.000000   0.000000   0.000000
    19  H    0.000000   0.000000  -0.000000  -0.000000
    20  H   -0.000000   0.000000   0.000000   0.000000
    21  C   -0.027533   0.000001  -0.000009  -0.000003
    22  C    0.002322   0.001501  -0.000023   0.000763
    23  C    0.000209  -0.044533   0.003623   0.003792
    24  C    0.001511   0.243493  -0.087511  -0.087883
    25  C   -0.027292  -0.044676   0.005361   0.003695
    26  C    0.382555   0.001533   0.000848  -0.000027
    27  H   -0.001186   0.000002  -0.000000   0.000000
    28  H   -0.000093  -0.000049   0.000000  -0.000001
    29  H    0.000007  -0.005403   0.000045   0.009071
    30  H   -0.001004  -0.005062   0.005861   0.000017
    31  H    0.446138  -0.000050   0.000001   0.000000
    32  N   -0.000050   5.739012   0.306959   0.314261
    33  O    0.000001   0.306959   8.314978  -0.086854
    34  O    0.000000   0.314261  -0.086854   8.301723
 Mulliken charges:
               1
     1  C   -0.305551
     2  C   -0.296628
     3  C   -0.488111
     4  H    0.172400
     5  H    0.147003
     6  H    0.148571
     7  H    0.147609
     8  H    0.154359
     9  H    0.172313
    10  H    0.150136
    11  C   -0.297719
    12  C   -0.299962
    13  C   -0.475253
    14  H    0.147436
    15  H    0.145370
    16  H    0.157521
    17  H    0.150998
    18  H    0.152742
    19  H    0.153863
    20  H    0.158968
    21  C   -0.170270
    22  C   -0.218773
    23  C   -0.170355
    24  C    0.156666
    25  C   -0.171278
    26  C   -0.219927
    27  H    0.226051
    28  H    0.223806
    29  H    0.275764
    30  H    0.280166
    31  H    0.224416
    32  N    0.493032
    33  O   -0.466804
    34  O   -0.458558
 Sum of Mulliken charges =  -0.00000
 Mulliken charges with hydrogens summed into heavy atoms:
               1
     1  C    0.013852
     2  C   -0.000448
     3  C   -0.011304
    11  C   -0.004913
    12  C    0.008557
    13  C   -0.009679
    21  C    0.055781
    22  C    0.005033
    23  C    0.105409
    24  C    0.156666
    25  C    0.108888
    26  C    0.004489
    32  N    0.493032
    33  O   -0.466804
    34  O   -0.458558
 Electronic spatial extent (au):  <R**2>=           7338.9651
 Charge=             -0.0000 electrons
 Dipole moment (field-independent basis, Debye):
    X=             -4.6544    Y=              2.5527    Z=             -0.5602  Tot=              5.3379
 Quadrupole moment (field-independent basis, Debye-Ang):
   XX=            -69.8449   YY=            -95.3967   ZZ=            -94.7653
   XY=             -3.2485   XZ=              1.7423   YZ=             -1.0916
 Traceless Quadrupole moment (field-independent basis, Debye-Ang):
   XX=             16.8241   YY=             -8.7278   ZZ=             -8.0963
   XY=             -3.2485   XZ=              1.7423   YZ=             -1.0916
 Octapole moment (field-independent basis, Debye-Ang**2):
  XXX=           -183.1447  YYY=              5.5384  ZZZ=              3.5139  XYY=            -18.9643
  XXY=              4.8712  XXZ=              6.8138  XZZ=              7.3823  YZZ=             -5.0841
  YYZ=             -6.7101  XYZ=              9.2693
 Hexadecapole moment (field-independent basis, Debye-Ang**3):
 XXXX=          -7975.6355 YYYY=          -1297.9897 ZZZZ=           -226.4492 XXXY=             21.3398
 XXXZ=             41.4115 YYYX=            -29.4897 YYYZ=            -11.7801 ZZZX=            -10.3930
 ZZZY=             -4.9748 XXYY=          -1586.1119 XXZZ=          -1547.6383 YYZZ=           -252.8472
 XXYZ=            -48.3582 YYXZ=             18.2985 ZZXY=              9.5433
 N-N= 8.985717475981D+02 E-N=-3.360584962022D+03  KE= 6.679565861141D+02
 Leave Link  601 at Wed May  5 21:43:06 2021, MaxMem=   524288000 cpu:               0.6 elap:               0.6
 (Enter /opt/gaussian/g16_legacy/l9999.exe)
 1\1\GINC-TRUENO91\SP\RMP2-FC\6-31G(d)\C12H19N1O2\JRAMOS\05-May-2021\0\
 \#p 6-31g* mp2\\Input file generated by CHIRIPA (05-May-2021 14:53:11)
 \\0,1\C,0,-0.666,-0.374,0.\C,0,-1.882,0.553,0.\C,0,-3.207,-0.21,0.\H,0
 ,-0.713,-1.03,-0.88\H,0,-0.713,-1.029,0.881\H,0,-1.832,1.207,-0.88\H,0
 ,-1.832,1.207,0.88\H,0,-3.283,-0.85,0.885\H,0,-3.283,-0.85,-0.885\H,0,
 -4.063,0.472,0.\C,0,0.666,0.374,0.\C,0,1.882,-0.553,0.\C,0,3.207,0.21,
 0.\H,0,0.713,1.029,-0.881\H,0,0.713,1.03,0.88\H,0,1.832,-1.207,-0.88\H
 ,0,1.832,-1.207,0.88\H,0,3.283,0.85,0.885\H,0,3.283,0.85,-0.885\H,0,4.
 063,-0.472,0.\C,0,-7.041101,-3.801395,-4.562817\C,0,-6.290713,-4.97276
 4,-4.708877\C,0,-4.961469,-5.022734,-4.278574\C,0,-4.411858,-3.877703,
 -3.704011\C,0,-5.133634,-2.695773,-3.544729\C,0,-6.461189,-2.668635,-3
 .982233\H,0,-8.073033,-3.771445,-4.899884\H,0,-6.738475,-5.854,-5.1594
 07\H,0,-4.357731,-5.916451,-4.379508\H,0,-4.659829,-1.833329,-3.09183\
 H,0,-7.041558,-1.75756,-3.867529\N,0,-3.005541,-3.918519,-3.244656\O,0
 ,-2.544511,-2.896223,-2.741665\O,0,-2.390928,-4.972033,-3.396304\\Vers
 ion=EM64L-G16RevA.03\State=1-A\HF=-669.5363415\MP2=-671.6279252\RMSD=6
 .624e-09\PG=C01 [X(C12H19N1O2)]\\@


 SILVERMAN'S PARADOX - IF MURPHY'S LAW CAN GO WRONG, IT WILL.
 Job cpu time:       0 days  0 hours  3 minutes 37.3 seconds.
 Elapsed time:       0 days  0 hours  1 minutes 53.5 seconds.
 File lengths (MBytes):  RWF=     43 Int=      0 D2E=      0 Chk=      6 Scr=      1
 Normal termination of Gaussian 16 at Wed May  5 21:43:07 2021.
