 Entering Gaussian System, Link 0=/opt/gaussian/g16_legacy/g16
 Input=gaussian_03437_1_1.com
 Output=gaussian_03437_1_1.log
 Initial command:
 /opt/gaussian/g16_legacy/l1.exe "/scratch-local/jramos/2587789/Gau-25629.inp" -scrdir="/scratch-local/jramos/2587789/"
 Entering Link 1 = /opt/gaussian/g16_legacy/l1.exe PID=     25630.
  
 Copyright (c) 1988,1990,1992,1993,1995,1998,2003,2009,2016,
            Gaussian, Inc.  All Rights Reserved.
  
 This is part of the Gaussian(R) 16 program.  It is based on
 the Gaussian(R) 09 system (copyright 2009, Gaussian, Inc.),
 the Gaussian(R) 03 system (copyright 2003, Gaussian, Inc.),
 the Gaussian(R) 98 system (copyright 1998, Gaussian, Inc.),
 the Gaussian(R) 94 system (copyright 1995, Gaussian, Inc.),
 the Gaussian 92(TM) system (copyright 1992, Gaussian, Inc.),
 the Gaussian 90(TM) system (copyright 1990, Gaussian, Inc.),
 the Gaussian 88(TM) system (copyright 1988, Gaussian, Inc.),
 the Gaussian 86(TM) system (copyright 1986, Carnegie Mellon
 University), and the Gaussian 82(TM) system (copyright 1983,
 Carnegie Mellon University). Gaussian is a federally registered
 trademark of Gaussian, Inc.
  
 This software contains proprietary and confidential information,
 including trade secrets, belonging to Gaussian, Inc.
  
 This software is provided under written license and may be
 used, copied, transmitted, or stored only in accord with that
 written license.
  
 The following legend is applicable only to US Government
 contracts under FAR:
  
                    RESTRICTED RIGHTS LEGEND
  
 Use, reproduction and disclosure by the US Government is
 subject to restrictions as set forth in subparagraphs (a)
 and (c) of the Commercial Computer Software - Restricted
 Rights clause in FAR 52.227-19.
  
 Gaussian, Inc.
 340 Quinnipiac St., Bldg. 40, Wallingford CT 06492
  
  
 ---------------------------------------------------------------
 Warning -- This program may not be used in any manner that
 competes with the business of Gaussian, Inc. or will provide
 assistance to any competitor of Gaussian, Inc.  The licensee
 of this program is prohibited from giving any competitor of
 Gaussian, Inc. access to this program.  By using this program,
 the user acknowledges that Gaussian, Inc. is engaged in the
 business of creating and licensing software in the field of
 computational chemistry and represents and warrants to the
 licensee that it is not a competitor of Gaussian, Inc. and that
 it will not use this program in any manner prohibited above.
 ---------------------------------------------------------------
  

 Cite this work as:
 Gaussian 16, Revision A.03,
 M. J. Frisch, G. W. Trucks, H. B. Schlegel, G. E. Scuseria, 
 M. A. Robb, J. R. Cheeseman, G. Scalmani, V. Barone, 
 G. A. Petersson, H. Nakatsuji, X. Li, M. Caricato, A. V. Marenich, 
 J. Bloino, B. G. Janesko, R. Gomperts, B. Mennucci, H. P. Hratchian, 
 J. V. Ortiz, A. F. Izmaylov, J. L. Sonnenberg, D. Williams-Young, 
 F. Ding, F. Lipparini, F. Egidi, J. Goings, B. Peng, A. Petrone, 
 T. Henderson, D. Ranasinghe, V. G. Zakrzewski, J. Gao, N. Rega, 
 G. Zheng, W. Liang, M. Hada, M. Ehara, K. Toyota, R. Fukuda, 
 J. Hasegawa, M. Ishida, T. Nakajima, Y. Honda, O. Kitao, H. Nakai, 
 T. Vreven, K. Throssell, J. A. Montgomery, Jr., J. E. Peralta, 
 F. Ogliaro, M. J. Bearpark, J. J. Heyd, E. N. Brothers, K. N. Kudin, 
 V. N. Staroverov, T. A. Keith, R. Kobayashi, J. Normand, 
 K. Raghavachari, A. P. Rendell, J. C. Burant, S. S. Iyengar, 
 J. Tomasi, M. Cossi, J. M. Millam, M. Klene, C. Adamo, R. Cammi, 
 J. W. Ochterski, R. L. Martin, K. Morokuma, O. Farkas, 
 J. B. Foresman, and D. J. Fox, Gaussian, Inc., Wallingford CT, 2016.
 
 ******************************************
 Gaussian 16:  EM64L-G16RevA.03 25-Dec-2016
                 5-May-2021 
 ******************************************
 %chk=gaussian_03437_1_1.chk
 %nproc=2
 Will use up to    2 processors via shared memory.
 %mem=4000Mb
 -------------
 #p 6-31g* mp2
 -------------
 1/38=1,172=1/1;
 2/12=2,17=6,18=5,40=1/2;
 3/5=1,6=6,7=1,11=9,25=1,30=1/1,2,3;
 4//1;
 5/5=2,38=5/2;
 8/10=2/1;
 9/16=-3/6;
 6/7=2,8=2,9=2,10=2/1;
 99/5=1,9=1/99;
 Leave Link    1 at Wed May  5 21:30:41 2021, MaxMem=   524288000 cpu:               0.1 elap:               0.1
 (Enter /opt/gaussian/g16_legacy/l101.exe)
 ------------------------------------------------------
 Input file generated by CHIRIPA (05-May-2021 14:51:12)
 ------------------------------------------------------
 Symbolic Z-matrix:
 Charge =  0 Multiplicity = 1
 C                    -0.666    -0.374     0. 
 C                    -1.882     0.553     0. 
 C                    -3.207    -0.21      0. 
 H                    -0.713    -1.03     -0.88 
 H                    -0.713    -1.029     0.881 
 H                    -1.832     1.207    -0.88 
 H                    -1.832     1.207     0.88 
 H                    -3.283    -0.85      0.885 
 H                    -3.283    -0.85     -0.885 
 H                    -4.063     0.472     0. 
 C                     0.666     0.374     0. 
 C                     1.882    -0.553     0. 
 C                     3.207     0.21      0. 
 H                     0.713     1.029    -0.881 
 H                     0.713     1.03      0.88 
 H                     1.832    -1.207    -0.88 
 H                     1.832    -1.207     0.88 
 H                     3.283     0.85      0.885 
 H                     3.283     0.85     -0.885 
 H                     4.063    -0.472     0. 
 C                    -4.02016   2.79223   4.30175 
 C                    -2.93314   1.73425   4.10925 
 C                    -3.36579   0.3482    4.5883 
 H                    -4.29335   2.83888   5.36482 
 H                    -4.92431   2.48172   3.76 
 H                    -2.03085   2.04733   4.65005 
 H                    -2.66237   1.69025   3.04653 
 H                    -4.25194   0.01072   4.04108 
 H                    -3.61683   0.36983   5.65371 
 H                    -2.57374  -0.39269   4.44135 
 C                    -3.60258   4.18309   3.82756 
 C                    -4.6896    5.24108   4.02006 
 C                    -4.25695   6.62712   3.54101 
 H                    -2.69843   4.4936    4.3693 
 H                    -3.32939   4.13644   2.76448 
 H                    -4.96037   5.28508   5.08277 
 H                    -5.59188   4.92799   3.47925 
 H                    -4.0059    6.60549   2.47559 
 H                    -3.3708    6.96461   4.08822 
 H                    -5.049     7.36801   3.68796 
 
 ITRead=  0  0  0  0  0  0  0  0  0  0  0  0  0  0  0  0  0  0  0  0
 ITRead=  0  0  0  0  0  0  0  0  0  0  0  0  0  0  0  0  0  0  0  0
 MicOpt= -1 -1 -1 -1 -1 -1 -1 -1 -1 -1 -1 -1 -1 -1 -1 -1 -1 -1 -1 -1
 MicOpt= -1 -1 -1 -1 -1 -1 -1 -1 -1 -1 -1 -1 -1 -1 -1 -1 -1 -1 -1 -1
 NAtoms=     40 NQM=       40 NQMF=       0 NMMI=      0 NMMIF=      0
                NMic=       0 NMicF=      0.
                    Isotopes and Nuclear Properties:
 (Nuclear quadrupole moments (NQMom) in fm**2, nuclear magnetic moments (NMagM)
  in nuclear magnetons)

  Atom         1           2           3           4           5           6           7           8           9          10
 IAtWgt=          12          12          12           1           1           1           1           1           1           1
 AtmWgt=  12.0000000  12.0000000  12.0000000   1.0078250   1.0078250   1.0078250   1.0078250   1.0078250   1.0078250   1.0078250
 NucSpn=           0           0           0           1           1           1           1           1           1           1
 AtZEff=  -0.0000000  -0.0000000  -0.0000000  -0.0000000  -0.0000000  -0.0000000  -0.0000000  -0.0000000  -0.0000000  -0.0000000
 NQMom=    0.0000000   0.0000000   0.0000000   0.0000000   0.0000000   0.0000000   0.0000000   0.0000000   0.0000000   0.0000000
 NMagM=    0.0000000   0.0000000   0.0000000   2.7928460   2.7928460   2.7928460   2.7928460   2.7928460   2.7928460   2.7928460
 AtZNuc=   6.0000000   6.0000000   6.0000000   1.0000000   1.0000000   1.0000000   1.0000000   1.0000000   1.0000000   1.0000000

  Atom        11          12          13          14          15          16          17          18          19          20
 IAtWgt=          12          12          12           1           1           1           1           1           1           1
 AtmWgt=  12.0000000  12.0000000  12.0000000   1.0078250   1.0078250   1.0078250   1.0078250   1.0078250   1.0078250   1.0078250
 NucSpn=           0           0           0           1           1           1           1           1           1           1
 AtZEff=  -0.0000000  -0.0000000  -0.0000000  -0.0000000  -0.0000000  -0.0000000  -0.0000000  -0.0000000  -0.0000000  -0.0000000
 NQMom=    0.0000000   0.0000000   0.0000000   0.0000000   0.0000000   0.0000000   0.0000000   0.0000000   0.0000000   0.0000000
 NMagM=    0.0000000   0.0000000   0.0000000   2.7928460   2.7928460   2.7928460   2.7928460   2.7928460   2.7928460   2.7928460
 AtZNuc=   6.0000000   6.0000000   6.0000000   1.0000000   1.0000000   1.0000000   1.0000000   1.0000000   1.0000000   1.0000000

  Atom        21          22          23          24          25          26          27          28          29          30
 IAtWgt=          12          12          12           1           1           1           1           1           1           1
 AtmWgt=  12.0000000  12.0000000  12.0000000   1.0078250   1.0078250   1.0078250   1.0078250   1.0078250   1.0078250   1.0078250
 NucSpn=           0           0           0           1           1           1           1           1           1           1
 AtZEff=  -0.0000000  -0.0000000  -0.0000000  -0.0000000  -0.0000000  -0.0000000  -0.0000000  -0.0000000  -0.0000000  -0.0000000
 NQMom=    0.0000000   0.0000000   0.0000000   0.0000000   0.0000000   0.0000000   0.0000000   0.0000000   0.0000000   0.0000000
 NMagM=    0.0000000   0.0000000   0.0000000   2.7928460   2.7928460   2.7928460   2.7928460   2.7928460   2.7928460   2.7928460
 AtZNuc=   6.0000000   6.0000000   6.0000000   1.0000000   1.0000000   1.0000000   1.0000000   1.0000000   1.0000000   1.0000000

  Atom        31          32          33          34          35          36          37          38          39          40
 IAtWgt=          12          12          12           1           1           1           1           1           1           1
 AtmWgt=  12.0000000  12.0000000  12.0000000   1.0078250   1.0078250   1.0078250   1.0078250   1.0078250   1.0078250   1.0078250
 NucSpn=           0           0           0           1           1           1           1           1           1           1
 AtZEff=  -0.0000000  -0.0000000  -0.0000000  -0.0000000  -0.0000000  -0.0000000  -0.0000000  -0.0000000  -0.0000000  -0.0000000
 NQMom=    0.0000000   0.0000000   0.0000000   0.0000000   0.0000000   0.0000000   0.0000000   0.0000000   0.0000000   0.0000000
 NMagM=    0.0000000   0.0000000   0.0000000   2.7928460   2.7928460   2.7928460   2.7928460   2.7928460   2.7928460   2.7928460
 AtZNuc=   6.0000000   6.0000000   6.0000000   1.0000000   1.0000000   1.0000000   1.0000000   1.0000000   1.0000000   1.0000000
 Leave Link  101 at Wed May  5 21:30:42 2021, MaxMem=   524288000 cpu:               0.2 elap:               0.1
 (Enter /opt/gaussian/g16_legacy/l202.exe)
                          Input orientation:                          
 ---------------------------------------------------------------------
 Center     Atomic      Atomic             Coordinates (Angstroms)
 Number     Number       Type             X           Y           Z
 ---------------------------------------------------------------------
      1          6           0       -0.666000   -0.374000    0.000000
      2          6           0       -1.882000    0.553000    0.000000
      3          6           0       -3.207000   -0.210000    0.000000
      4          1           0       -0.713000   -1.030000   -0.880000
      5          1           0       -0.713000   -1.029000    0.881000
      6          1           0       -1.832000    1.207000   -0.880000
      7          1           0       -1.832000    1.207000    0.880000
      8          1           0       -3.283000   -0.850000    0.885000
      9          1           0       -3.283000   -0.850000   -0.885000
     10          1           0       -4.063000    0.472000    0.000000
     11          6           0        0.666000    0.374000    0.000000
     12          6           0        1.882000   -0.553000    0.000000
     13          6           0        3.207000    0.210000    0.000000
     14          1           0        0.713000    1.029000   -0.881000
     15          1           0        0.713000    1.030000    0.880000
     16          1           0        1.832000   -1.207000   -0.880000
     17          1           0        1.832000   -1.207000    0.880000
     18          1           0        3.283000    0.850000    0.885000
     19          1           0        3.283000    0.850000   -0.885000
     20          1           0        4.063000   -0.472000    0.000000
     21          6           0       -4.020157    2.792229    4.301746
     22          6           0       -2.933141    1.734248    4.109247
     23          6           0       -3.365789    0.348202    4.588295
     24          1           0       -4.293349    2.838880    5.364824
     25          1           0       -4.924312    2.481720    3.760004
     26          1           0       -2.030853    2.047333    4.650052
     27          1           0       -2.662369    1.690245    3.046532
     28          1           0       -4.251938    0.010715    4.041080
     29          1           0       -3.616833    0.369832    5.653711
     30          1           0       -2.573737   -0.392689    4.441349
     31          6           0       -3.602580    4.183094    3.827559
     32          6           0       -4.689596    5.241076    4.020058
     33          6           0       -4.256947    6.627121    3.541009
     34          1           0       -2.698425    4.493603    4.369300
     35          1           0       -3.329388    4.136444    2.764481
     36          1           0       -4.960367    5.285078    5.082773
     37          1           0       -5.591883    4.927990    3.479253
     38          1           0       -4.005903    6.605492    2.475594
     39          1           0       -3.370799    6.964608    4.088224
     40          1           0       -5.049000    7.368012    3.687955
 ---------------------------------------------------------------------
                    Distance matrix (angstroms):
                    1          2          3          4          5
     1  C    0.000000
     2  C    1.529047   0.000000
     3  C    2.546287   1.528985   0.000000
     4  H    1.098610   2.155655   2.768905   0.000000
     5  H    1.098815   2.155330   2.768927   1.761000   0.000000
     6  H    2.152561   1.097550   2.161692   2.501266   3.058264
     7  H    2.152561   1.097550   2.161692   3.058420   2.500372
     8  H    2.803300   2.171275   1.094806   3.122903   2.576229
     9  H    2.803300   2.171275   1.094806   2.576301   3.123411
    10  H    3.500761   2.182504   1.094468   3.775302   3.775137
    11  C    1.527654   2.554280   3.916782   2.155750   2.155507
    12  C    2.554280   3.923128   5.100546   2.781358   2.781504
    13  C    3.916782   5.100546   6.427736   4.204569   4.204484
    14  H    2.155507   2.781504   4.204484   2.504587   3.061615
    15  H    2.155750   2.781358   4.204569   3.061809   2.504587
    16  H    2.776381   4.203070   5.211519   2.551148   3.099973
    17  H    2.776381   4.203070   5.211519   3.099347   2.551217
    18  H    4.228002   5.248682   6.635279   4.755801   4.415730
    19  H    4.228002   5.248682   6.635279   4.416157   4.755777
    20  H    4.730015   6.032715   7.274720   4.888347   4.888413
    21  C    6.307170   5.300083   5.308448   7.238592   6.102506
    22  C    5.144954   4.402971   4.554230   6.120676   4.794387
    23  C    5.372419   4.826595   4.624852   6.232093   4.762144
    24  H    7.229218   6.310403   6.265553   8.172206   6.919832
    25  H    6.358143   5.207039   4.932763   7.183103   6.192654
    26  H    5.417440   4.886530   5.301119   6.464379   5.040468
    27  H    4.186640   3.344198   3.631654   5.159208   3.985456
    28  H    5.416390   4.716037   4.179825   6.150138   4.857077
    29  H    6.420681   5.916726   5.698124   7.285682   5.759145
    30  H    4.833776   4.593300   4.489986   5.673206   4.067348
    31  C    6.636325   5.548710   5.840031   7.595205   6.648143
    32  C    7.992451   6.783916   6.933483   8.896644   8.061070
    33  C    8.628403   7.421190   7.770930   9.525565   8.845982
    34  H    6.849459   5.940175   6.439978   7.874468   6.827100
    35  H    5.922845   4.751669   5.152563   6.842505   6.088908
    36  H    8.735063   7.596281   7.687962   9.668247   8.692675
    37  H    8.029983   6.708873   6.647692   8.848968   8.126509
    38  H    8.123843   6.875477   7.295049   8.966825   8.465897
    39  H    8.825230   7.748472   8.259262   9.780639   9.013764
    40  H    9.630704   8.371098   8.626717  10.497319   9.858484
                    6          7          8          9         10
     6  H    0.000000
     7  H    1.760000   0.000000
     8  H    3.074390   2.517275   0.000000
     9  H    2.517275   3.074390   1.770000   0.000000
    10  H    2.508383   2.508383   1.771810   1.771810   0.000000
    11  C    2.776381   2.776381   4.228002   4.228002   4.730015
    12  C    4.203070   4.203070   5.248682   5.248682   6.032715
    13  C    5.211519   5.211519   6.635279   6.635279   7.274720
    14  H    2.551217   3.099973   4.755777   4.415730   4.888413
    15  H    3.099347   2.551148   4.416157   4.755801   4.888347
    16  H    4.387743   4.727567   5.422721   5.127446   6.192291
    17  H    4.727567   4.387743   5.127446   5.422721   6.192291
    18  H    5.422721   5.127446   6.782504   7.009654   7.408767
    19  H    5.127446   5.422721   7.009654   6.782504   7.408767
    20  H    6.192291   6.192291   7.408767   7.408767   8.180649
    21  C    5.843926   4.359969   5.048107   6.380562   4.887772
    22  C    5.136447   3.452324   4.146867   5.634114   4.444745
    23  C    5.743892   4.103839   3.893191   5.603526   4.642616
    24  H    6.907901   5.369815   5.890455   7.327274   5.868264
    25  H    5.719873   4.413811   4.696798   5.947296   4.349536
    26  H    5.597069   3.867686   4.913047   6.371751   5.313594
    27  H    4.042362   2.370000   3.392676   4.721755   3.567526
    28  H    5.612863   4.156877   3.411819   5.093715   4.071708
    29  H    6.824651   5.164765   4.933563   6.659893   5.672209
    30  H    5.605884   3.973963   3.655107   5.392790   4.763525
    31  C    5.844074   4.547548   5.838906   6.902346   5.351113
    32  C    6.960617   5.856585   6.993447   7.946025   6.268778
    33  C    7.402932   6.506846   7.994391   8.743310   7.103652
    34  H    6.253607   4.871105   6.405948   7.516880   6.093122
    35  H    4.909792   3.791448   5.329092   6.179441   4.648515
    36  H    7.872234   6.639330   7.620633   8.721643   7.057306
    37  H    6.854602   5.893946   6.741384   7.600185   5.856495
    38  H    6.717855   6.034525   7.657476   8.209783   6.614495
    39  H    7.758943   6.768357   8.446091   9.263302   7.703679
    40  H    8.317053   7.496117   8.860645   9.569033   7.882144
                   11         12         13         14         15
    11  C    0.000000
    12  C    1.529047   0.000000
    13  C    2.546287   1.528985   0.000000
    14  H    1.098815   2.155330   2.768927   0.000000
    15  H    1.098610   2.155655   2.768905   1.761000   0.000000
    16  H    2.152561   1.097550   2.161692   2.500372   3.058420
    17  H    2.152561   1.097550   2.161692   3.058264   2.501266
    18  H    2.803300   2.171275   1.094806   3.123411   2.576301
    19  H    2.803300   2.171275   1.094806   2.576229   3.122903
    20  H    3.500761   2.182504   1.094468   3.775137   3.775302
    21  C    6.805359   8.033121   8.797995   7.236892   6.100539
    22  C    5.629387   6.730750   7.543910   6.220473   4.921214
    23  C    6.108063   7.028791   8.017051   6.856617   5.554531
    24  H    7.710520   8.855570   9.588930   8.206675   6.960548
    25  H    7.059157   8.347038   9.242109   7.445039   6.494706
    26  H    5.629924   6.610229   7.241124   6.257657   4.772524
    27  H    4.700202   5.913104   6.776575   5.220715   4.064837
    28  H    6.375611   7.367041   8.485623   7.065011   5.973439
    29  H    7.092752   7.940606   8.863108   7.866664   6.478549
    30  H    5.550612   6.293240   7.314761   6.414923   5.050732
    31  C    6.883326   8.195207   8.763907   7.123417   6.103633
    32  C    8.278388   9.639401  10.189643   8.423182   7.535328
    33  C    8.710664  10.088585  10.460817   8.694452   7.944124
    34  H    6.883405   8.095633   8.503769   7.155903   5.984111
    35  H    6.145036   7.536034   8.110714   6.267906   5.435270
    36  H    9.033785  10.331298  10.876437   9.266492   8.243548
    37  H    8.485583   9.899767  10.572841   8.600319   7.855062
    38  H    8.172315   9.593747   9.952731   8.039405   7.476635
    39  H    8.743308  10.040911  10.276466   8.752259   7.886044
    40  H    9.755944  11.152677  11.532549   9.708711   9.014192
                   16         17         18         19         20
    16  H    0.000000
    17  H    1.760000   0.000000
    18  H    3.074390   2.517275   0.000000
    19  H    2.517275   3.074390   1.770000   0.000000
    20  H    2.508383   2.508383   1.771810   1.771810   0.000000
    21  C    8.780209   7.870827   8.293522   9.165735   9.720989
    22  C    7.500006   6.464174   7.058192   8.022768   8.408295
    23  C    7.703111   6.571690   7.627096   8.626422   8.769954
    24  H    9.637784   8.602482   9.023610  10.020829  10.467656
    25  H    8.987994   8.218810   8.848058   9.570713  10.180072
    26  H    7.489579   6.302825   6.621651   7.765787   8.068771
    27  H    6.634081   5.769510   6.381665   7.177072   7.693325
    28  H    7.919227   6.963444   8.212218   9.041347   9.257512
    29  H    8.652489   7.413804   8.401123   9.518035   9.573555
    30  H    6.956319   5.723358   6.963710   8.013466   7.986122
    31  C    8.986038   8.202187   8.196303   8.984928   9.750960
    32  C   10.398051   9.693754   9.626652  10.339411  11.198573
    33  C   10.862507  10.272765   9.863078  10.479288  11.495990
    34  H    8.976457   8.074456   7.822636   8.755624   9.458587
    35  H    8.274936   7.664437   7.619504   8.236692   9.139339
    36  H   11.128252  10.293038  10.258865  11.101231  11.849037
    37  H   10.571435   9.975383  10.105627  10.697675  11.596631
    38  H   10.313882   9.882412   9.422515   9.876608  11.014838
    39  H   10.887036  10.204754   9.587602  10.314768  11.281759
    40  H   11.905680  11.347405  10.943640  11.524696  12.573597
                   21         22         23         24         25
    21  C    0.000000
    22  C    1.529047   0.000000
    23  C    2.546287   1.528985   0.000000
    24  H    1.098610   2.155656   2.768906   0.000000
    25  H    1.098816   2.155330   2.768927   1.761001   0.000000
    26  H    2.152561   1.097550   2.161692   2.501266   3.058265
    27  H    2.152561   1.097550   2.161692   3.058420   2.500372
    28  H    2.803300   2.171276   1.094807   3.122904   2.576229
    29  H    2.803299   2.171275   1.094807   2.576301   3.123411
    30  H    3.500760   2.182504   1.094467   3.775303   3.775137
    31  C    1.527655   2.554279   3.916783   2.155750   2.155508
    32  C    2.554280   3.923128   5.100546   2.781358   2.781504
    33  C    3.916783   5.100545   6.427736   4.204568   4.204484
    34  H    2.155507   2.781503   4.204484   2.504588   3.061615
    35  H    2.155750   2.781358   4.204569   3.061809   2.504588
    36  H    2.776381   4.203069   5.211519   2.551147   3.099973
    37  H    2.776381   4.203069   5.211519   3.099347   2.551217
    38  H    4.228003   5.248682   6.635279   4.755801   4.415731
    39  H    4.228002   5.248681   6.635279   4.416156   4.755777
    40  H    4.730016   6.032714   7.274720   4.888347   4.888414
                   26         27         28         29         30
    26  H    0.000000
    27  H    1.760000   0.000000
    28  H    3.074391   2.517276   0.000000
    29  H    2.517275   3.074390   1.770001   0.000000
    30  H    2.508383   2.508383   1.771809   1.771810   0.000000
    31  C    2.776382   2.776382   4.228002   4.228002   4.730015
    32  C    4.203070   4.203071   5.248682   5.248682   6.032715
    33  C    5.211519   5.211519   6.635279   6.635279   7.274719
    34  H    2.551218   3.099973   4.755777   4.415730   4.888414
    35  H    3.099348   2.551148   4.416157   4.755801   4.888347
    36  H    4.387743   4.727568   5.422721   5.127445   6.192291
    37  H    4.727567   4.387743   5.127445   5.422720   6.192290
    38  H    5.422721   5.127446   6.782504   7.009655   7.408767
    39  H    5.127446   5.422721   7.009655   6.782503   7.408767
    40  H    6.192291   6.192291   7.408767   7.408767   8.180648
                   31         32         33         34         35
    31  C    0.000000
    32  C    1.529047   0.000000
    33  C    2.546287   1.528985   0.000000
    34  H    1.098815   2.155330   2.768927   0.000000
    35  H    1.098610   2.155656   2.768905   1.761000   0.000000
    36  H    2.152560   1.097550   2.161693   2.500372   3.058420
    37  H    2.152560   1.097549   2.161692   3.058263   2.501265
    38  H    2.803300   2.171275   1.094806   3.123411   2.576301
    39  H    2.803300   2.171275   1.094806   2.576229   3.122903
    40  H    3.500760   2.182503   1.094468   3.775137   3.775301
                   36         37         38         39         40
    36  H    0.000000
    37  H    1.760000   0.000000
    38  H    3.074391   2.517276   0.000000
    39  H    2.517275   3.074390   1.769999   0.000000
    40  H    2.508383   2.508383   1.771809   1.771809   0.000000
 Stoichiometry    C12H28
 Framework group  C1[X(C12H28)]
 Deg. of freedom   114
 Full point group                 C1      NOp   1
 Largest Abelian subgroup         C1      NOp   1
 Largest concise Abelian subgroup C1      NOp   1
                         Standard orientation:                         
 ---------------------------------------------------------------------
 Center     Atomic      Atomic             Coordinates (Angstroms)
 Number     Number       Type             X           Y           Z
 ---------------------------------------------------------------------
      1          6           0        3.038089    0.662253    0.695563
      2          6           0        1.723012    0.635597    1.475207
      3          6           0        1.299710    2.019746    1.967895
      4          1           0        3.827020    1.082878    1.334005
      5          1           0        2.934323    1.341726   -0.161726
      6          1           0        1.828783   -0.044689    2.329982
      7          1           0        0.937162    0.214809    0.834899
      8          1           0        1.166602    2.704837    1.124371
      9          1           0        2.063289    2.443865    2.627949
     10          1           0        0.357200    1.977516    2.522649
     11          6           0        3.474464   -0.714040    0.196442
     12          6           0        4.789542   -0.687383   -0.583202
     13          6           0        5.212844   -2.071532   -1.075890
     14          1           0        3.578230   -1.393513    1.053731
     15          1           0        2.685534   -1.134664   -0.442000
     16          1           0        5.575392   -0.266596    0.057106
     17          1           0        4.683771   -0.007098   -1.437977
     18          1           0        4.449265   -2.495651   -1.735944
     19          1           0        5.345952   -2.756624   -0.232366
     20          1           0        6.155354   -2.029302   -1.630644
     21          6           0       -3.115553    0.737408   -0.685534
     22          6           0       -1.711872    0.915621   -1.265106
     23          6           0       -1.445388    2.344353   -1.739978
     24          1           0       -3.857535    1.016971   -1.445964
     25          1           0       -3.249623    1.434558    0.153158
     26          1           0       -1.580003    0.217374   -2.101573
     27          1           0       -0.973149    0.635418   -0.503272
     28          1           0       -1.549667    3.051652   -0.910848
     29          1           0       -2.159968    2.631231   -2.518232
     30          1           0       -0.436299    2.449307   -2.150567
     31          6           0       -3.397001   -0.685622   -0.206471
     32          6           0       -4.800683   -0.863834    0.373101
     33          6           0       -5.067165   -2.292567    0.847974
     34          1           0       -3.262930   -1.382771   -1.045162
     35          1           0       -2.655020   -0.965185    0.553959
     36          1           0       -5.539405   -0.583632   -0.388734
     37          1           0       -4.932551   -0.165587    1.209567
     38          1           0       -4.352586   -2.579446    1.626226
     39          1           0       -4.962887   -2.999865    0.018844
     40          1           0       -6.076255   -2.397521    1.258563
 ---------------------------------------------------------------------
 Rotational constants (GHZ):           0.8398296           0.2084672           0.1964355
 Leave Link  202 at Wed May  5 21:30:42 2021, MaxMem=   524288000 cpu:               0.1 elap:               0.1
 (Enter /opt/gaussian/g16_legacy/l301.exe)
 Standard basis: 6-31G(d) (6D, 7F)
 Ernie: Thresh=  0.10000D-02 Tol=  0.10000D-05 Strict=F.
 There are   236 symmetry adapted cartesian basis functions of A   symmetry.
 There are   236 symmetry adapted basis functions of A   symmetry.
   236 basis functions,   448 primitive gaussians,   236 cartesian basis functions
    50 alpha electrons       50 beta electrons
       nuclear repulsion energy       684.8534423823 Hartrees.
 IExCor=    0 DFT=F Ex=HF Corr=None ExCW=0 ScaHFX=  1.000000
 ScaDFX=  1.000000  1.000000  1.000000  1.000000 ScalE2=  1.000000  1.000000
 IRadAn=      5 IRanWt=     -1 IRanGd=            0 ICorTp=0 IEmpDi=  4
 NAtoms=   40 NActive=   40 NUniq=   40 SFac= 1.00D+00 NAtFMM=   60 NAOKFM=F Big=F
 Integral buffers will be    131072 words long.
 Raffenetti 1 integral format.
 Two-electron integral symmetry is turned on.
 Leave Link  301 at Wed May  5 21:30:42 2021, MaxMem=   524288000 cpu:               0.2 elap:               0.1
 (Enter /opt/gaussian/g16_legacy/l302.exe)
 NPDir=0 NMtPBC=     1 NCelOv=     1 NCel=       1 NClECP=     1 NCelD=      1
         NCelK=      1 NCelE2=     1 NClLst=     1 CellRange=     0.0.
 One-electron integrals computed using PRISM.
 One-electron integral symmetry used in STVInt
 NBasis=   236 RedAO= T EigKep=  3.19D-03  NBF=   236
 NBsUse=   236 1.00D-06 EigRej= -1.00D+00 NBFU=   236
 Leave Link  302 at Wed May  5 21:30:43 2021, MaxMem=   524288000 cpu:               0.7 elap:               0.7
 (Enter /opt/gaussian/g16_legacy/l303.exe)
 DipDrv:  MaxL=1.
 Leave Link  303 at Wed May  5 21:30:44 2021, MaxMem=   524288000 cpu:               0.1 elap:               0.1
 (Enter /opt/gaussian/g16_legacy/l401.exe)
 ExpMin= 1.61D-01 ExpMax= 3.05D+03 ExpMxC= 4.57D+02 IAcc=3 IRadAn=         5 AccDes= 0.00D+00
 Harris functional with IExCor=  205 and IRadAn=       5 diagonalized for initial guess.
 HarFok:  IExCor=  205 AccDes= 0.00D+00 IRadAn=         5 IDoV= 1 UseB2=F ITyADJ=14
 ICtDFT=  3500011 ScaDFX=  1.000000  1.000000  1.000000  1.000000
 FoFCou: FMM=F IPFlag=           0 FMFlag=      100000 FMFlg1=           0
         NFxFlg=           0 DoJE=T BraDBF=F KetDBF=T FulRan=T
         wScrn=  0.000000 ICntrl=       500 IOpCl=  0 I1Cent=   200000004 NGrid=           0
         NMat0=    1 NMatS0=      1 NMatT0=    0 NMatD0=    1 NMtDS0=    0 NMtDT0=    0
 Petite list used in FoFCou.
 Harris En= -472.099501649539    
 JPrj=0 DoOrth=F DoCkMO=F.
 Leave Link  401 at Wed May  5 21:30:50 2021, MaxMem=   524288000 cpu:              11.0 elap:               6.2
 (Enter /opt/gaussian/g16_legacy/l502.exe)
 Keep R1 ints in memory in canonical form, NReq=397720540.
 FoFCou: FMM=F IPFlag=           0 FMFlag=           0 FMFlg1=           0
         NFxFlg=           0 DoJE=F BraDBF=F KetDBF=F FulRan=T
         wScrn=  0.000000 ICntrl=       600 IOpCl=  0 I1Cent=           0 NGrid=           0
         NMat0=    1 NMatS0=  27966 NMatT0=    0 NMatD0=    1 NMtDS0=    0 NMtDT0=    0
 Symmetry not used in FoFCou.
 Two-electron integral symmetry not used.
 Closed shell SCF:
 Using DIIS extrapolation, IDIIS=  1040.
 NGot=   524288000 LenX=   133109463 LenY=   133053326
 Requested convergence on RMS density matrix=1.00D-08 within 128 cycles.
 Requested convergence on MAX density matrix=1.00D-06.
 Requested convergence on             energy=1.00D-06.
 No special actions if energy rises.

 Cycle   1  Pass 1  IDiag  1:
 E= -469.869944144003    
 DIIS: error= 6.17D-02 at cycle   1 NSaved=   1.
 NSaved= 1 IEnMin= 1 EnMin= -469.869944144003     IErMin= 1 ErrMin= 6.17D-02
 ErrMax= 6.17D-02  0.00D+00 EMaxC= 1.00D-01 BMatC= 1.07D+00 BMatP= 1.07D+00
 IDIUse=3 WtCom= 3.83D-01 WtEn= 6.17D-01
 Coeff-Com:  0.100D+01
 Coeff-En:   0.100D+01
 Coeff:      0.100D+01
 Gap=     0.611 Goal=   None    Shift=    0.000
 GapD=    0.611 DampG=2.000 DampE=0.500 DampFc=1.0000 IDamp=-1.
 RMSDP=4.73D-03 MaxDP=1.18D-01              OVMax= 1.35D-01

 Cycle   2  Pass 1  IDiag  1:
 E= -470.595884365975     Delta-E=       -0.725940221972 Rises=F Damp=F
 DIIS: error= 2.31D-02 at cycle   2 NSaved=   2.
 NSaved= 2 IEnMin= 2 EnMin= -470.595884365975     IErMin= 2 ErrMin= 2.31D-02
 ErrMax= 2.31D-02  0.00D+00 EMaxC= 1.00D-01 BMatC= 1.47D-01 BMatP= 1.07D+00
 IDIUse=3 WtCom= 7.69D-01 WtEn= 2.31D-01
 Coeff-Com:  0.219D+00 0.781D+00
 Coeff-En:   0.000D+00 0.100D+01
 Coeff:      0.169D+00 0.831D+00
 Gap=     0.671 Goal=   None    Shift=    0.000
 RMSDP=1.73D-03 MaxDP=3.37D-02 DE=-7.26D-01 OVMax= 4.76D-02

 Cycle   3  Pass 1  IDiag  1:
 E= -470.727300451028     Delta-E=       -0.131416085053 Rises=F Damp=F
 DIIS: error= 5.06D-03 at cycle   3 NSaved=   3.
 NSaved= 3 IEnMin= 3 EnMin= -470.727300451028     IErMin= 3 ErrMin= 5.06D-03
 ErrMax= 5.06D-03  0.00D+00 EMaxC= 1.00D-01 BMatC= 5.29D-03 BMatP= 1.47D-01
 IDIUse=3 WtCom= 9.49D-01 WtEn= 5.06D-02
 Coeff-Com: -0.264D-01 0.112D+00 0.914D+00
 Coeff-En:   0.000D+00 0.000D+00 0.100D+01
 Coeff:     -0.250D-01 0.107D+00 0.918D+00
 Gap=     0.641 Goal=   None    Shift=    0.000
 RMSDP=2.90D-04 MaxDP=6.88D-03 DE=-1.31D-01 OVMax= 9.85D-03

 Cycle   4  Pass 1  IDiag  1:
 E= -470.733254195221     Delta-E=       -0.005953744193 Rises=F Damp=F
 DIIS: error= 5.53D-04 at cycle   4 NSaved=   4.
 NSaved= 4 IEnMin= 4 EnMin= -470.733254195221     IErMin= 4 ErrMin= 5.53D-04
 ErrMax= 5.53D-04  0.00D+00 EMaxC= 1.00D-01 BMatC= 6.39D-05 BMatP= 5.29D-03
 IDIUse=3 WtCom= 9.94D-01 WtEn= 5.53D-03
 Coeff-Com:  0.163D-02-0.248D-01-0.990D-01 0.112D+01
 Coeff-En:   0.000D+00 0.000D+00 0.000D+00 0.100D+01
 Coeff:      0.162D-02-0.247D-01-0.984D-01 0.112D+01
 Gap=     0.642 Goal=   None    Shift=    0.000
 RMSDP=6.10D-05 MaxDP=1.17D-03 DE=-5.95D-03 OVMax= 1.80D-03

 Cycle   5  Pass 1  IDiag  1:
 E= -470.733361071772     Delta-E=       -0.000106876551 Rises=F Damp=F
 DIIS: error= 1.45D-04 at cycle   5 NSaved=   5.
 NSaved= 5 IEnMin= 5 EnMin= -470.733361071772     IErMin= 5 ErrMin= 1.45D-04
 ErrMax= 1.45D-04  0.00D+00 EMaxC= 1.00D-01 BMatC= 6.16D-06 BMatP= 6.39D-05
 IDIUse=3 WtCom= 9.99D-01 WtEn= 1.45D-03
 Coeff-Com:  0.218D-02-0.129D-01-0.817D-01 0.191D+00 0.902D+00
 Coeff-En:   0.000D+00 0.000D+00 0.000D+00 0.000D+00 0.100D+01
 Coeff:      0.217D-02-0.129D-01-0.816D-01 0.191D+00 0.902D+00
 Gap=     0.642 Goal=   None    Shift=    0.000
 RMSDP=1.54D-05 MaxDP=3.40D-04 DE=-1.07D-04 OVMax= 4.72D-04

 Cycle   6  Pass 1  IDiag  1:
 E= -470.733369663015     Delta-E=       -0.000008591243 Rises=F Damp=F
 DIIS: error= 2.62D-05 at cycle   6 NSaved=   6.
 NSaved= 6 IEnMin= 6 EnMin= -470.733369663015     IErMin= 6 ErrMin= 2.62D-05
 ErrMax= 2.62D-05  0.00D+00 EMaxC= 1.00D-01 BMatC= 1.37D-07 BMatP= 6.16D-06
 IDIUse=1 WtCom= 1.00D+00 WtEn= 0.00D+00
 Coeff-Com:  0.118D-03-0.179D-03-0.252D-02-0.334D-01 0.610D-01 0.975D+00
 Coeff:      0.118D-03-0.179D-03-0.252D-02-0.334D-01 0.610D-01 0.975D+00
 Gap=     0.642 Goal=   None    Shift=    0.000
 RMSDP=3.33D-06 MaxDP=6.38D-05 DE=-8.59D-06 OVMax= 9.77D-05

 Cycle   7  Pass 1  IDiag  1:
 E= -470.733369896854     Delta-E=       -0.000000233838 Rises=F Damp=F
 DIIS: error= 3.47D-06 at cycle   7 NSaved=   7.
 NSaved= 7 IEnMin= 7 EnMin= -470.733369896854     IErMin= 7 ErrMin= 3.47D-06
 ErrMax= 3.47D-06  0.00D+00 EMaxC= 1.00D-01 BMatC= 4.97D-09 BMatP= 1.37D-07
 IDIUse=1 WtCom= 1.00D+00 WtEn= 0.00D+00
 Coeff-Com: -0.553D-04 0.359D-03 0.235D-02-0.649D-02-0.249D-01 0.541D-02
 Coeff-Com:  0.102D+01
 Coeff:     -0.553D-04 0.359D-03 0.235D-02-0.649D-02-0.249D-01 0.541D-02
 Coeff:      0.102D+01
 Gap=     0.642 Goal=   None    Shift=    0.000
 RMSDP=7.18D-07 MaxDP=1.28D-05 DE=-2.34D-07 OVMax= 2.07D-05

 Cycle   8  Pass 1  IDiag  1:
 E= -470.733369905910     Delta-E=       -0.000000009056 Rises=F Damp=F
 DIIS: error= 1.79D-06 at cycle   8 NSaved=   8.
 NSaved= 8 IEnMin= 8 EnMin= -470.733369905910     IErMin= 8 ErrMin= 1.79D-06
 ErrMax= 1.79D-06  0.00D+00 EMaxC= 1.00D-01 BMatC= 5.73D-10 BMatP= 4.97D-09
 IDIUse=1 WtCom= 1.00D+00 WtEn= 0.00D+00
 Coeff-Com: -0.148D-04 0.596D-04 0.494D-03 0.140D-02-0.719D-02-0.672D-01
 Coeff-Com:  0.150D+00 0.923D+00
 Coeff:     -0.148D-04 0.596D-04 0.494D-03 0.140D-02-0.719D-02-0.672D-01
 Coeff:      0.150D+00 0.923D+00
 Gap=     0.642 Goal=   None    Shift=    0.000
 RMSDP=1.93D-07 MaxDP=3.70D-06 DE=-9.06D-09 OVMax= 7.25D-06

 Cycle   9  Pass 1  IDiag  1:
 E= -470.733369906850     Delta-E=       -0.000000000940 Rises=F Damp=F
 DIIS: error= 4.37D-07 at cycle   9 NSaved=   9.
 NSaved= 9 IEnMin= 9 EnMin= -470.733369906850     IErMin= 9 ErrMin= 4.37D-07
 ErrMax= 4.37D-07  0.00D+00 EMaxC= 1.00D-01 BMatC= 3.71D-11 BMatP= 5.73D-10
 IDIUse=1 WtCom= 1.00D+00 WtEn= 0.00D+00
 Coeff-Com:  0.528D-05-0.334D-04-0.224D-03 0.448D-03 0.268D-02 0.385D-02
 Coeff-Com: -0.946D-01-0.609D-01 0.115D+01
 Coeff:      0.528D-05-0.334D-04-0.224D-03 0.448D-03 0.268D-02 0.385D-02
 Coeff:     -0.946D-01-0.609D-01 0.115D+01
 Gap=     0.642 Goal=   None    Shift=    0.000
 RMSDP=7.18D-08 MaxDP=1.22D-06 DE=-9.40D-10 OVMax= 2.08D-06

 Cycle  10  Pass 1  IDiag  1:
 E= -470.733369906938     Delta-E=       -0.000000000088 Rises=F Damp=F
 DIIS: error= 6.71D-08 at cycle  10 NSaved=  10.
 NSaved=10 IEnMin=10 EnMin= -470.733369906938     IErMin=10 ErrMin= 6.71D-08
 ErrMax= 6.71D-08  0.00D+00 EMaxC= 1.00D-01 BMatC= 1.39D-12 BMatP= 3.71D-11
 IDIUse=1 WtCom= 1.00D+00 WtEn= 0.00D+00
 Coeff-Com:  0.235D-06 0.896D-07-0.546D-05-0.134D-03 0.154D-03 0.367D-02
 Coeff-Com:  0.769D-03-0.505D-01-0.107D+00 0.115D+01
 Coeff:      0.235D-06 0.896D-07-0.546D-05-0.134D-03 0.154D-03 0.367D-02
 Coeff:      0.769D-03-0.505D-01-0.107D+00 0.115D+01
 Gap=     0.642 Goal=   None    Shift=    0.000
 RMSDP=1.39D-08 MaxDP=2.65D-07 DE=-8.82D-11 OVMax= 4.87D-07

 Cycle  11  Pass 1  IDiag  1:
 E= -470.733369906959     Delta-E=       -0.000000000021 Rises=F Damp=F
 DIIS: error= 7.09D-09 at cycle  11 NSaved=  11.
 NSaved=11 IEnMin=11 EnMin= -470.733369906959     IErMin=11 ErrMin= 7.09D-09
 ErrMax= 7.09D-09  0.00D+00 EMaxC= 1.00D-01 BMatC= 3.35D-14 BMatP= 1.39D-12
 IDIUse=1 WtCom= 1.00D+00 WtEn= 0.00D+00
 Coeff-Com: -0.171D-06 0.856D-06 0.646D-05 0.195D-04-0.103D-03-0.902D-03
 Coeff-Com:  0.210D-02 0.126D-01-0.995D-03-0.274D+00 0.126D+01
 Coeff:     -0.171D-06 0.856D-06 0.646D-05 0.195D-04-0.103D-03-0.902D-03
 Coeff:      0.210D-02 0.126D-01-0.995D-03-0.274D+00 0.126D+01
 Gap=     0.642 Goal=   None    Shift=    0.000
 RMSDP=1.86D-09 MaxDP=3.41D-08 DE=-2.14D-11 OVMax= 5.49D-08

 SCF Done:  E(RHF) =  -470.733369907     A.U. after   11 cycles
            NFock= 11  Conv=0.19D-08     -V/T= 2.0011
 KE= 4.702251818790D+02 PE=-2.462829027791D+03 EE= 8.370170336225D+02
 Leave Link  502 at Wed May  5 21:31:05 2021, MaxMem=   524288000 cpu:              22.3 elap:              14.7
 (Enter /opt/gaussian/g16_legacy/l801.exe)
 ExpMin= 1.61D-01 ExpMax= 3.05D+03 ExpMxC= 4.57D+02 IAcc=3 IRadAn=         5 AccDes= 0.00D+00
 HarFok:  IExCor=  205 AccDes= 0.00D+00 IRadAn=         5 IDoV=-2 UseB2=F ITyADJ=14
 ICtDFT= 12500011 ScaDFX=  1.000000  1.000000  1.000000  1.000000
 Largest valence mixing into a core orbital is  1.98D-04
 Largest core mixing into a valence orbital is  3.29D-05
 Range of M.O.s used for correlation:    13   236
 NBasis=   236 NAE=    50 NBE=    50 NFC=    12 NFV=     0
 NROrb=    224 NOA=    38 NOB=    38 NVA=   186 NVB=   186
 Leave Link  801 at Wed May  5 21:31:06 2021, MaxMem=   524288000 cpu:               1.5 elap:               0.9
 (Enter /opt/gaussian/g16_legacy/l906.exe)
 FulOut=F Deriv=F AODrv=F NAtomX=    40
   MMem=         154  MDisk=          38 MDiskD=          38
  W3Min=     1668048 MinDsk=     1838182 NBas6D=         236
 NBas2D=       28290    NTT=       27966    LW2=     2000000
    MDV=   523947385 MDiskM=       30717 NBas2p=       19510
 Fully direct method using O(OVN) memory.
 IMap=   1   2   3   4   5   6   7   8   9  10  11  12  13  14  15  16  17  18  19  20
 IMap=  21  22  23  24  25  26  27  28  29  30  31  32  33  34  35  36  37  38
 JobTyp=1 Pass  1:  I=   1 to  38 NPSUse=  2 ParTrn=T ParDer=T DoDerP=F.
 Spin components of T(2) and E(2):
     alpha-alpha T2 =       0.6280645510D-01 E2=     -0.1842641790D+00
     alpha-beta  T2 =       0.4042978998D+00 E2=     -0.1214485368D+01
     beta-beta   T2 =       0.6280645510D-01 E2=     -0.1842641790D+00
 The integrals were generated   1 times.
 ANorm=    0.1236895634D+01
 E2 =    -0.1583013726D+01 EUMP2 =    -0.47231638363273D+03
 Leave Link  906 at Wed May  5 21:31:32 2021, MaxMem=   524288000 cpu:              51.7 elap:              26.3
 (Enter /opt/gaussian/g16_legacy/l601.exe)
 Copying SCF densities to generalized density rwf, IOpCl= 0 IROHF=0.

 **********************************************************************

            Population analysis using the SCF density.

 **********************************************************************

 Orbital symmetries:
       Occupied  (A) (A) (A) (A) (A) (A) (A) (A) (A) (A) (A) (A)
                 (A) (A) (A) (A) (A) (A) (A) (A) (A) (A) (A) (A)
                 (A) (A) (A) (A) (A) (A) (A) (A) (A) (A) (A) (A)
                 (A) (A) (A) (A) (A) (A) (A) (A) (A) (A) (A) (A)
                 (A) (A)
       Virtual   (A) (A) (A) (A) (A) (A) (A) (A) (A) (A) (A) (A)
                 (A) (A) (A) (A) (A) (A) (A) (A) (A) (A) (A) (A)
                 (A) (A) (A) (A) (A) (A) (A) (A) (A) (A) (A) (A)
                 (A) (A) (A) (A) (A) (A) (A) (A) (A) (A) (A) (A)
                 (A) (A) (A) (A) (A) (A) (A) (A) (A) (A) (A) (A)
                 (A) (A) (A) (A) (A) (A) (A) (A) (A) (A) (A) (A)
                 (A) (A) (A) (A) (A) (A) (A) (A) (A) (A) (A) (A)
                 (A) (A) (A) (A) (A) (A) (A) (A) (A) (A) (A) (A)
                 (A) (A) (A) (A) (A) (A) (A) (A) (A) (A) (A) (A)
                 (A) (A) (A) (A) (A) (A) (A) (A) (A) (A) (A) (A)
                 (A) (A) (A) (A) (A) (A) (A) (A) (A) (A) (A) (A)
                 (A) (A) (A) (A) (A) (A) (A) (A) (A) (A) (A) (A)
                 (A) (A) (A) (A) (A) (A) (A) (A) (A) (A) (A) (A)
                 (A) (A) (A) (A) (A) (A) (A) (A) (A) (A) (A) (A)
                 (A) (A) (A) (A) (A) (A) (A) (A) (A) (A) (A) (A)
                 (A) (A) (A) (A) (A) (A)
 The electronic state is 1-A.
 Alpha  occ. eigenvalues --  -11.21619 -11.21615 -11.21609 -11.21604 -11.21419
 Alpha  occ. eigenvalues --  -11.21414 -11.21359 -11.21354 -11.21106 -11.21103
 Alpha  occ. eigenvalues --  -11.21075 -11.21071  -1.08460  -1.08428  -1.03577
 Alpha  occ. eigenvalues --   -1.03517  -0.96009  -0.95979  -0.87023  -0.86998
 Alpha  occ. eigenvalues --   -0.79678  -0.79552  -0.78307  -0.78208  -0.65203
 Alpha  occ. eigenvalues --   -0.64966  -0.61158  -0.60746  -0.59383  -0.59338
 Alpha  occ. eigenvalues --   -0.57622  -0.57589  -0.55366  -0.55186  -0.52695
 Alpha  occ. eigenvalues --   -0.52687  -0.52426  -0.52411  -0.50028  -0.49855
 Alpha  occ. eigenvalues --   -0.48055  -0.47850  -0.46906  -0.46450  -0.45952
 Alpha  occ. eigenvalues --   -0.45760  -0.45756  -0.45419  -0.43803  -0.43794
 Alpha virt. eigenvalues --    0.20381   0.23194   0.23710   0.25069   0.25704
 Alpha virt. eigenvalues --    0.26723   0.26859   0.27878   0.28429   0.28730
 Alpha virt. eigenvalues --    0.30757   0.31496   0.31626   0.31886   0.32081
 Alpha virt. eigenvalues --    0.32584   0.33418   0.33864   0.34160   0.34347
 Alpha virt. eigenvalues --    0.34606   0.34820   0.34969   0.36110   0.36228
 Alpha virt. eigenvalues --    0.36443   0.36639   0.39151   0.39567   0.40448
 Alpha virt. eigenvalues --    0.40923   0.44860   0.45285   0.45562   0.45715
 Alpha virt. eigenvalues --    0.46709   0.47891   0.48863   0.69163   0.69394
 Alpha virt. eigenvalues --    0.69462   0.69497   0.71609   0.71722   0.73581
 Alpha virt. eigenvalues --    0.75704   0.75980   0.77788   0.77997   0.79971
 Alpha virt. eigenvalues --    0.80798   0.80879   0.83905   0.84079   0.86790
 Alpha virt. eigenvalues --    0.87186   0.87949   0.87970   0.95866   0.96035
 Alpha virt. eigenvalues --    0.96266   0.96394   0.98490   0.98613   1.01247
 Alpha virt. eigenvalues --    1.01873   1.05419   1.05658   1.07468   1.07809
 Alpha virt. eigenvalues --    1.10754   1.10911   1.11545   1.12316   1.15660
 Alpha virt. eigenvalues --    1.16321   1.16507   1.16944   1.17487   1.17899
 Alpha virt. eigenvalues --    1.18415   1.18970   1.19612   1.20119   1.20378
 Alpha virt. eigenvalues --    1.20679   1.20957   1.21078   1.21382   1.21664
 Alpha virt. eigenvalues --    1.21736   1.21932   1.22049   1.22927   1.23618
 Alpha virt. eigenvalues --    1.24541   1.24961   1.26743   1.26914   1.27248
 Alpha virt. eigenvalues --    1.27779   1.38762   1.40132   1.47300   1.55639
 Alpha virt. eigenvalues --    1.57090   1.65765   1.66043   1.67298   1.67319
 Alpha virt. eigenvalues --    1.70819   1.72132   1.72710   1.73027   1.79434
 Alpha virt. eigenvalues --    1.80616   1.81128   1.81616   1.92643   1.92963
 Alpha virt. eigenvalues --    2.05160   2.05358   2.13132   2.13170   2.14805
 Alpha virt. eigenvalues --    2.14953   2.17790   2.18033   2.22423   2.22482
 Alpha virt. eigenvalues --    2.25500   2.25620   2.25728   2.25919   2.27659
 Alpha virt. eigenvalues --    2.27706   2.32690   2.32842   2.33872   2.34139
 Alpha virt. eigenvalues --    2.35932   2.35957   2.39527   2.39788   2.42933
 Alpha virt. eigenvalues --    2.43470   2.56743   2.56768   2.56785   2.56823
 Alpha virt. eigenvalues --    2.59371   2.60107   2.66727   2.66848   2.67431
 Alpha virt. eigenvalues --    2.67734   2.67902   2.68531   2.76803   2.77286
 Alpha virt. eigenvalues --    2.77575   2.77990   2.79943   2.80013   2.91342
 Alpha virt. eigenvalues --    2.91473   2.94839   2.95014   2.98534   2.98543
 Alpha virt. eigenvalues --    3.13747   3.13772   3.18607   3.18632   4.55126
 Alpha virt. eigenvalues --    4.56381   4.62139   4.63790   4.71783   4.71891
 Alpha virt. eigenvalues --    4.79617   4.80878   4.87883   4.89968   4.99568
 Alpha virt. eigenvalues --    5.01061
          Condensed to atoms (all electrons):
               1          2          3          4          5          6
     1  C    5.083464   0.351901  -0.057316   0.396255   0.396048  -0.043571
     2  C    0.351901   5.070748   0.340800  -0.041828  -0.041807   0.398869
     3  C   -0.057316   0.340800   5.098824  -0.002861  -0.002845  -0.039862
     4  H    0.396255  -0.041828  -0.002861   0.566541  -0.031494  -0.002975
     5  H    0.396048  -0.041807  -0.002845  -0.031494   0.566904   0.004571
     6  H   -0.043571   0.398869  -0.039862  -0.002975   0.004571   0.564330
     7  H   -0.043607   0.397498  -0.040631   0.004559  -0.003072  -0.031730
     8  H   -0.003791  -0.038708   0.391260   0.000157   0.002621   0.004211
     9  H   -0.003786  -0.038718   0.391057   0.002599   0.000156  -0.002876
    10  H    0.004408  -0.035881   0.393971  -0.000059  -0.000058  -0.002508
    11  C    0.355527  -0.051939   0.004070  -0.041647  -0.041697  -0.003201
    12  C   -0.051900   0.003979  -0.000085  -0.003243  -0.003263  -0.000065
    13  C    0.004073  -0.000085   0.000001  -0.000052  -0.000052  -0.000000
    14  H   -0.041724  -0.003270  -0.000052  -0.002806   0.004472   0.002408
    15  H   -0.041583  -0.003252  -0.000051   0.004452  -0.002791   0.000242
    16  H   -0.003199  -0.000064  -0.000000   0.002406   0.000236   0.000017
    17  H   -0.003198  -0.000065  -0.000000   0.000237   0.002408  -0.000003
    18  H   -0.000070  -0.000000  -0.000000  -0.000001   0.000013   0.000000
    19  H   -0.000070  -0.000001  -0.000000   0.000013  -0.000001  -0.000002
    20  H   -0.000087   0.000001  -0.000000   0.000001   0.000001   0.000000
    21  C   -0.000000   0.000016  -0.000006   0.000000   0.000000  -0.000000
    22  C    0.000016  -0.000524   0.000034  -0.000000   0.000003   0.000005
    23  C   -0.000008   0.000040  -0.000042   0.000000   0.000002  -0.000000
    24  H    0.000000  -0.000000   0.000000  -0.000000   0.000000   0.000000
    25  H    0.000000  -0.000001   0.000002   0.000000  -0.000000  -0.000000
    26  H   -0.000000   0.000004  -0.000000   0.000000  -0.000001  -0.000000
    27  H    0.000033  -0.000523   0.000213  -0.000001   0.000022   0.000019
    28  H    0.000000  -0.000010   0.000031   0.000000  -0.000001   0.000000
    29  H    0.000000  -0.000000   0.000001  -0.000000   0.000000   0.000000
    30  H    0.000000   0.000008  -0.000013  -0.000000   0.000038   0.000000
    31  C    0.000000  -0.000004   0.000000  -0.000000  -0.000000  -0.000000
    32  C   -0.000000   0.000000  -0.000000   0.000000   0.000000   0.000000
    33  C   -0.000000  -0.000000   0.000000   0.000000  -0.000000   0.000000
    34  H   -0.000000   0.000000   0.000000   0.000000  -0.000000  -0.000000
    35  H   -0.000000   0.000001  -0.000001   0.000000   0.000000  -0.000000
    36  H    0.000000  -0.000000  -0.000000  -0.000000  -0.000000  -0.000000
    37  H   -0.000000  -0.000000  -0.000000  -0.000000   0.000000   0.000000
    38  H    0.000000  -0.000000  -0.000000  -0.000000  -0.000000  -0.000000
    39  H    0.000000  -0.000000   0.000000  -0.000000   0.000000   0.000000
    40  H   -0.000000   0.000000  -0.000000   0.000000   0.000000  -0.000000
               7          8          9         10         11         12
     1  C   -0.043607  -0.003791  -0.003786   0.004408   0.355527  -0.051900
     2  C    0.397498  -0.038708  -0.038718  -0.035881  -0.051939   0.003979
     3  C   -0.040631   0.391260   0.391057   0.393971   0.004070  -0.000085
     4  H    0.004559   0.000157   0.002599  -0.000059  -0.041647  -0.003243
     5  H   -0.003072   0.002621   0.000156  -0.000058  -0.041697  -0.003263
     6  H   -0.031730   0.004211  -0.002876  -0.002508  -0.003201  -0.000065
     7  H    0.559167  -0.003053   0.004281  -0.002579  -0.003100  -0.000064
     8  H   -0.003053   0.546685  -0.028980  -0.027534  -0.000069  -0.000001
     9  H    0.004281  -0.028980   0.548319  -0.027499  -0.000069  -0.000001
    10  H   -0.002579  -0.027534  -0.027499   0.538345  -0.000087   0.000001
    11  C   -0.003100  -0.000069  -0.000069  -0.000087   5.084178   0.352224
    12  C   -0.000064  -0.000001  -0.000001   0.000001   0.352224   5.060484
    13  C   -0.000001  -0.000000  -0.000000  -0.000000  -0.057347   0.340638
    14  H    0.000244  -0.000001   0.000013   0.000001   0.396071  -0.041875
    15  H    0.002393   0.000013  -0.000002   0.000001   0.396128  -0.041772
    16  H   -0.000003   0.000000  -0.000002   0.000000  -0.043640   0.399128
    17  H    0.000017  -0.000002   0.000000   0.000000  -0.043659   0.399116
    18  H   -0.000002   0.000000  -0.000000  -0.000000  -0.003795  -0.038896
    19  H    0.000000  -0.000000   0.000000  -0.000000  -0.003796  -0.038903
    20  H    0.000000  -0.000000  -0.000000   0.000000   0.004399  -0.035836
    21  C    0.000003  -0.000002   0.000000  -0.000001   0.000000  -0.000000
    22  C   -0.000209  -0.000025   0.000000   0.000013  -0.000001   0.000000
    23  C    0.000021   0.000128   0.000000  -0.000008   0.000000  -0.000000
    24  H    0.000000   0.000000  -0.000000   0.000000  -0.000000   0.000000
    25  H    0.000004  -0.000001  -0.000000   0.000010  -0.000000   0.000000
    26  H    0.000033   0.000001  -0.000000   0.000000  -0.000000   0.000000
    27  H    0.001737   0.000056  -0.000001   0.000037  -0.000009   0.000000
    28  H    0.000007   0.000176  -0.000000   0.000014  -0.000000   0.000000
    29  H   -0.000000  -0.000000  -0.000000   0.000000  -0.000000   0.000000
    30  H    0.000008   0.000070   0.000000  -0.000001  -0.000000  -0.000000
    31  C    0.000000  -0.000000  -0.000000  -0.000000  -0.000000   0.000000
    32  C   -0.000000   0.000000   0.000000  -0.000000   0.000000  -0.000000
    33  C    0.000000  -0.000000   0.000000  -0.000000   0.000000   0.000000
    34  H   -0.000000  -0.000000   0.000000   0.000000  -0.000000  -0.000000
    35  H    0.000090  -0.000000   0.000000   0.000002  -0.000000  -0.000000
    36  H    0.000000  -0.000000  -0.000000   0.000000  -0.000000   0.000000
    37  H   -0.000000   0.000000   0.000000  -0.000000  -0.000000  -0.000000
    38  H    0.000000  -0.000000  -0.000000   0.000000   0.000000   0.000000
    39  H   -0.000000   0.000000  -0.000000   0.000000  -0.000000  -0.000000
    40  H   -0.000000   0.000000   0.000000  -0.000000  -0.000000  -0.000000
              13         14         15         16         17         18
     1  C    0.004073  -0.041724  -0.041583  -0.003199  -0.003198  -0.000070
     2  C   -0.000085  -0.003270  -0.003252  -0.000064  -0.000065  -0.000000
     3  C    0.000001  -0.000052  -0.000051  -0.000000  -0.000000  -0.000000
     4  H   -0.000052  -0.002806   0.004452   0.002406   0.000237  -0.000001
     5  H   -0.000052   0.004472  -0.002791   0.000236   0.002408   0.000013
     6  H   -0.000000   0.002408   0.000242   0.000017  -0.000003   0.000000
     7  H   -0.000001   0.000244   0.002393  -0.000003   0.000017  -0.000002
     8  H   -0.000000  -0.000001   0.000013   0.000000  -0.000002   0.000000
     9  H   -0.000000   0.000013  -0.000002  -0.000002   0.000000  -0.000000
    10  H   -0.000000   0.000001   0.000001   0.000000   0.000000  -0.000000
    11  C   -0.057347   0.396071   0.396128  -0.043640  -0.043659  -0.003795
    12  C    0.340638  -0.041875  -0.041772   0.399128   0.399116  -0.038896
    13  C    5.097380  -0.002862  -0.002853  -0.039886  -0.039881   0.391287
    14  H   -0.002862   0.567069  -0.031501  -0.002987   0.004572   0.000159
    15  H   -0.002853  -0.031501   0.566200   0.004564  -0.002977   0.002626
    16  H   -0.039886  -0.002987   0.004564   0.564336  -0.031654   0.004219
    17  H   -0.039881   0.004572  -0.002977  -0.031654   0.564326  -0.002891
    18  H    0.391287   0.000159   0.002626   0.004219  -0.002891   0.548711
    19  H    0.391272   0.002625   0.000158  -0.002892   0.004220  -0.029138
    20  H    0.394100  -0.000059  -0.000059  -0.002506  -0.002507  -0.027488
    21  C    0.000000   0.000000  -0.000000   0.000000   0.000000   0.000000
    22  C   -0.000000  -0.000000   0.000004   0.000000  -0.000000  -0.000000
    23  C    0.000000  -0.000000  -0.000000  -0.000000  -0.000000  -0.000000
    24  H   -0.000000   0.000000   0.000000  -0.000000  -0.000000  -0.000000
    25  H   -0.000000  -0.000000   0.000000  -0.000000   0.000000  -0.000000
    26  H   -0.000000  -0.000000   0.000001   0.000000   0.000000  -0.000000
    27  H    0.000000   0.000000   0.000009   0.000000  -0.000000   0.000000
    28  H   -0.000000  -0.000000   0.000000   0.000000   0.000000  -0.000000
    29  H   -0.000000   0.000000   0.000000  -0.000000   0.000000  -0.000000
    30  H   -0.000000   0.000000  -0.000000   0.000000   0.000000   0.000000
    31  C   -0.000000  -0.000000  -0.000000  -0.000000  -0.000000   0.000000
    32  C    0.000000   0.000000  -0.000000  -0.000000   0.000000  -0.000000
    33  C   -0.000000  -0.000000   0.000000   0.000000  -0.000000  -0.000000
    34  H   -0.000000   0.000000   0.000000  -0.000000   0.000000  -0.000000
    35  H    0.000000   0.000000   0.000000   0.000000   0.000000  -0.000000
    36  H   -0.000000  -0.000000  -0.000000   0.000000  -0.000000   0.000000
    37  H   -0.000000   0.000000   0.000000  -0.000000  -0.000000  -0.000000
    38  H   -0.000000  -0.000000  -0.000000   0.000000  -0.000000   0.000000
    39  H   -0.000000   0.000000   0.000000  -0.000000  -0.000000  -0.000000
    40  H    0.000000   0.000000  -0.000000  -0.000000   0.000000  -0.000000
              19         20         21         22         23         24
     1  C   -0.000070  -0.000087  -0.000000   0.000016  -0.000008   0.000000
     2  C   -0.000001   0.000001   0.000016  -0.000524   0.000040  -0.000000
     3  C   -0.000000  -0.000000  -0.000006   0.000034  -0.000042   0.000000
     4  H    0.000013   0.000001   0.000000  -0.000000   0.000000  -0.000000
     5  H   -0.000001   0.000001   0.000000   0.000003   0.000002   0.000000
     6  H   -0.000002   0.000000  -0.000000   0.000005  -0.000000   0.000000
     7  H    0.000000   0.000000   0.000003  -0.000209   0.000021   0.000000
     8  H   -0.000000  -0.000000  -0.000002  -0.000025   0.000128   0.000000
     9  H    0.000000  -0.000000   0.000000   0.000000   0.000000  -0.000000
    10  H   -0.000000   0.000000  -0.000001   0.000013  -0.000008   0.000000
    11  C   -0.003796   0.004399   0.000000  -0.000001   0.000000  -0.000000
    12  C   -0.038903  -0.035836  -0.000000   0.000000  -0.000000   0.000000
    13  C    0.391272   0.394100   0.000000  -0.000000   0.000000  -0.000000
    14  H    0.002625  -0.000059   0.000000  -0.000000  -0.000000   0.000000
    15  H    0.000158  -0.000059  -0.000000   0.000004  -0.000000   0.000000
    16  H   -0.002892  -0.002506   0.000000   0.000000  -0.000000  -0.000000
    17  H    0.004220  -0.002507   0.000000  -0.000000  -0.000000  -0.000000
    18  H   -0.029138  -0.027488   0.000000  -0.000000  -0.000000  -0.000000
    19  H    0.548829  -0.027495   0.000000  -0.000000   0.000000  -0.000000
    20  H   -0.027495   0.537278  -0.000000   0.000000   0.000000   0.000000
    21  C    0.000000  -0.000000   5.083792   0.351258  -0.057279   0.396163
    22  C   -0.000000   0.000000   0.351258   5.072214   0.340358  -0.041806
    23  C    0.000000   0.000000  -0.057279   0.340358   5.097579  -0.002838
    24  H   -0.000000   0.000000   0.396163  -0.041806  -0.002838   0.566657
    25  H   -0.000000   0.000000   0.396106  -0.041781  -0.002868  -0.031472
    26  H    0.000000   0.000000  -0.043619   0.399271  -0.039903  -0.002985
    27  H   -0.000000  -0.000000  -0.043251   0.398068  -0.039861   0.004483
    28  H   -0.000000   0.000000  -0.003799  -0.038664   0.391242   0.000159
    29  H   -0.000000   0.000000  -0.003789  -0.038851   0.391169   0.002613
    30  H    0.000000   0.000000   0.004405  -0.035852   0.393925  -0.000059
    31  C   -0.000000  -0.000000   0.355480  -0.051791   0.004068  -0.041625
    32  C    0.000000   0.000000  -0.051860   0.003962  -0.000085  -0.003252
    33  C    0.000000   0.000000   0.004073  -0.000085   0.000001  -0.000052
    34  H    0.000000   0.000000  -0.041727  -0.003276  -0.000053  -0.002802
    35  H    0.000000  -0.000000  -0.041776  -0.003045  -0.000051   0.004459
    36  H   -0.000000  -0.000000  -0.003202  -0.000063  -0.000000   0.002402
    37  H    0.000000   0.000000  -0.003194  -0.000065  -0.000000   0.000237
    38  H   -0.000000  -0.000000  -0.000070  -0.000000  -0.000000  -0.000001
    39  H   -0.000000   0.000000  -0.000070  -0.000001  -0.000000   0.000013
    40  H    0.000000   0.000000  -0.000087   0.000001  -0.000000   0.000001
              25         26         27         28         29         30
     1  C    0.000000  -0.000000   0.000033   0.000000   0.000000   0.000000
     2  C   -0.000001   0.000004  -0.000523  -0.000010  -0.000000   0.000008
     3  C    0.000002  -0.000000   0.000213   0.000031   0.000001  -0.000013
     4  H    0.000000   0.000000  -0.000001   0.000000  -0.000000  -0.000000
     5  H   -0.000000  -0.000001   0.000022  -0.000001   0.000000   0.000038
     6  H   -0.000000  -0.000000   0.000019   0.000000   0.000000   0.000000
     7  H    0.000004   0.000033   0.001737   0.000007  -0.000000   0.000008
     8  H   -0.000001   0.000001   0.000056   0.000176  -0.000000   0.000070
     9  H   -0.000000  -0.000000  -0.000001  -0.000000  -0.000000   0.000000
    10  H    0.000010   0.000000   0.000037   0.000014   0.000000  -0.000001
    11  C   -0.000000  -0.000000  -0.000009  -0.000000  -0.000000  -0.000000
    12  C    0.000000   0.000000   0.000000   0.000000   0.000000  -0.000000
    13  C   -0.000000  -0.000000   0.000000  -0.000000  -0.000000  -0.000000
    14  H   -0.000000  -0.000000   0.000000  -0.000000   0.000000   0.000000
    15  H    0.000000   0.000001   0.000009   0.000000   0.000000  -0.000000
    16  H   -0.000000   0.000000   0.000000   0.000000  -0.000000   0.000000
    17  H    0.000000   0.000000  -0.000000   0.000000   0.000000   0.000000
    18  H   -0.000000  -0.000000   0.000000  -0.000000  -0.000000   0.000000
    19  H   -0.000000   0.000000  -0.000000  -0.000000  -0.000000   0.000000
    20  H    0.000000   0.000000  -0.000000   0.000000   0.000000   0.000000
    21  C    0.396106  -0.043619  -0.043251  -0.003799  -0.003789   0.004405
    22  C   -0.041781   0.399271   0.398068  -0.038664  -0.038851  -0.035852
    23  C   -0.002868  -0.039903  -0.039861   0.391242   0.391169   0.393925
    24  H   -0.031472  -0.002985   0.004483   0.000159   0.002613  -0.000059
    25  H    0.566701   0.004575  -0.003043   0.002629   0.000158  -0.000058
    26  H    0.004575   0.564900  -0.032084   0.004220  -0.002895  -0.002502
    27  H   -0.003043  -0.032084   0.555494  -0.003014   0.004225  -0.002560
    28  H    0.002629   0.004220  -0.003014   0.547614  -0.029036  -0.027575
    29  H    0.000158  -0.002895   0.004225  -0.029036   0.548593  -0.027511
    30  H   -0.000058  -0.002502  -0.002560  -0.027575  -0.027511   0.538455
    31  C   -0.041693  -0.003202  -0.003251  -0.000069  -0.000070  -0.000087
    32  C   -0.003266  -0.000065  -0.000054  -0.000001  -0.000001   0.000001
    33  C   -0.000052  -0.000000  -0.000001  -0.000000  -0.000000  -0.000000
    34  H    0.004470   0.002413   0.000259  -0.000001   0.000013   0.000001
    35  H   -0.002786   0.000245   0.002136   0.000014  -0.000001   0.000001
    36  H    0.000238   0.000017  -0.000004   0.000000  -0.000002   0.000000
    37  H    0.002408  -0.000003   0.000018  -0.000002   0.000000   0.000000
    38  H    0.000013   0.000000  -0.000002   0.000000  -0.000000  -0.000000
    39  H   -0.000001  -0.000002   0.000000  -0.000000   0.000000  -0.000000
    40  H    0.000001   0.000000   0.000000  -0.000000  -0.000000   0.000000
              31         32         33         34         35         36
     1  C    0.000000  -0.000000  -0.000000  -0.000000  -0.000000   0.000000
     2  C   -0.000004   0.000000  -0.000000   0.000000   0.000001  -0.000000
     3  C    0.000000  -0.000000   0.000000   0.000000  -0.000001  -0.000000
     4  H   -0.000000   0.000000   0.000000   0.000000   0.000000  -0.000000
     5  H   -0.000000   0.000000  -0.000000  -0.000000   0.000000  -0.000000
     6  H   -0.000000   0.000000   0.000000  -0.000000  -0.000000  -0.000000
     7  H    0.000000  -0.000000   0.000000  -0.000000   0.000090   0.000000
     8  H   -0.000000   0.000000  -0.000000  -0.000000  -0.000000  -0.000000
     9  H   -0.000000   0.000000   0.000000   0.000000   0.000000  -0.000000
    10  H   -0.000000  -0.000000  -0.000000   0.000000   0.000002   0.000000
    11  C   -0.000000   0.000000   0.000000  -0.000000  -0.000000  -0.000000
    12  C    0.000000  -0.000000   0.000000  -0.000000  -0.000000   0.000000
    13  C   -0.000000   0.000000  -0.000000  -0.000000   0.000000  -0.000000
    14  H   -0.000000   0.000000  -0.000000   0.000000   0.000000  -0.000000
    15  H   -0.000000  -0.000000   0.000000   0.000000   0.000000  -0.000000
    16  H   -0.000000  -0.000000   0.000000  -0.000000   0.000000   0.000000
    17  H   -0.000000   0.000000  -0.000000   0.000000   0.000000  -0.000000
    18  H    0.000000  -0.000000  -0.000000  -0.000000  -0.000000   0.000000
    19  H   -0.000000   0.000000   0.000000   0.000000   0.000000  -0.000000
    20  H   -0.000000   0.000000   0.000000   0.000000  -0.000000  -0.000000
    21  C    0.355480  -0.051860   0.004073  -0.041727  -0.041776  -0.003202
    22  C   -0.051791   0.003962  -0.000085  -0.003276  -0.003045  -0.000063
    23  C    0.004068  -0.000085   0.000001  -0.000053  -0.000051  -0.000000
    24  H   -0.041625  -0.003252  -0.000052  -0.002802   0.004459   0.002402
    25  H   -0.041693  -0.003266  -0.000052   0.004470  -0.002786   0.000238
    26  H   -0.003202  -0.000065  -0.000000   0.002413   0.000245   0.000017
    27  H   -0.003251  -0.000054  -0.000001   0.000259   0.002136  -0.000004
    28  H   -0.000069  -0.000001  -0.000000  -0.000001   0.000014   0.000000
    29  H   -0.000070  -0.000001  -0.000000   0.000013  -0.000001  -0.000002
    30  H   -0.000087   0.000001  -0.000000   0.000001   0.000001   0.000000
    31  C    5.084234   0.352210  -0.057343   0.396075   0.396126  -0.043638
    32  C    0.352210   5.060487   0.340616  -0.041875  -0.041813   0.399162
    33  C   -0.057343   0.340616   5.097402  -0.002862  -0.002850  -0.039888
    34  H    0.396075  -0.041875  -0.002862   0.567087  -0.031506  -0.002982
    35  H    0.396126  -0.041813  -0.002850  -0.031506   0.566827   0.004566
    36  H   -0.043638   0.399162  -0.039888  -0.002982   0.004566   0.564223
    37  H   -0.043663   0.399123  -0.039880   0.004571  -0.002974  -0.031640
    38  H   -0.003800  -0.038890   0.391291   0.000159   0.002622   0.004217
    39  H   -0.003797  -0.038905   0.391271   0.002625   0.000158  -0.002891
    40  H    0.004400  -0.035836   0.394104  -0.000059  -0.000059  -0.002504
              37         38         39         40
     1  C   -0.000000   0.000000   0.000000  -0.000000
     2  C   -0.000000  -0.000000  -0.000000   0.000000
     3  C   -0.000000  -0.000000   0.000000  -0.000000
     4  H   -0.000000  -0.000000  -0.000000   0.000000
     5  H    0.000000  -0.000000   0.000000   0.000000
     6  H    0.000000  -0.000000   0.000000  -0.000000
     7  H   -0.000000   0.000000  -0.000000  -0.000000
     8  H    0.000000  -0.000000   0.000000   0.000000
     9  H    0.000000  -0.000000  -0.000000   0.000000
    10  H   -0.000000   0.000000   0.000000  -0.000000
    11  C   -0.000000   0.000000  -0.000000  -0.000000
    12  C   -0.000000   0.000000  -0.000000  -0.000000
    13  C   -0.000000  -0.000000  -0.000000   0.000000
    14  H    0.000000  -0.000000   0.000000   0.000000
    15  H    0.000000  -0.000000   0.000000  -0.000000
    16  H   -0.000000   0.000000  -0.000000  -0.000000
    17  H   -0.000000  -0.000000  -0.000000   0.000000
    18  H   -0.000000   0.000000  -0.000000  -0.000000
    19  H    0.000000  -0.000000  -0.000000   0.000000
    20  H    0.000000  -0.000000   0.000000   0.000000
    21  C   -0.003194  -0.000070  -0.000070  -0.000087
    22  C   -0.000065  -0.000000  -0.000001   0.000001
    23  C   -0.000000  -0.000000  -0.000000  -0.000000
    24  H    0.000237  -0.000001   0.000013   0.000001
    25  H    0.002408   0.000013  -0.000001   0.000001
    26  H   -0.000003   0.000000  -0.000002   0.000000
    27  H    0.000018  -0.000002   0.000000   0.000000
    28  H   -0.000002   0.000000  -0.000000  -0.000000
    29  H    0.000000  -0.000000   0.000000  -0.000000
    30  H    0.000000  -0.000000  -0.000000   0.000000
    31  C   -0.043663  -0.003800  -0.003797   0.004400
    32  C    0.399123  -0.038890  -0.038905  -0.035836
    33  C   -0.039880   0.391291   0.391271   0.394104
    34  H    0.004571   0.000159   0.002625  -0.000059
    35  H   -0.002974   0.002622   0.000158  -0.000059
    36  H   -0.031640   0.004217  -0.002891  -0.002504
    37  H    0.564259  -0.002890   0.004220  -0.002507
    38  H   -0.002890   0.548680  -0.029138  -0.027483
    39  H    0.004220  -0.029138   0.548834  -0.027493
    40  H   -0.002507  -0.027483  -0.027493   0.537241
 Mulliken charges:
               1
     1  C   -0.297816
     2  C   -0.307183
     3  C   -0.476499
     4  H    0.149748
     5  H    0.149588
     6  H    0.152122
     7  H    0.157988
     8  H    0.156788
     9  H    0.155507
    10  H    0.159414
    11  C   -0.298540
    12  C   -0.299667
    13  C   -0.475732
    14  H    0.149503
    15  H    0.150048
    16  H    0.151927
    17  H    0.151940
    18  H    0.155267
    19  H    0.155179
    20  H    0.160256
    21  C   -0.297564
    22  C   -0.309169
    23  C   -0.475539
    24  H    0.149705
    25  H    0.149707
    26  H    0.151582
    27  H    0.160848
    28  H    0.156067
    29  H    0.155384
    30  H    0.159306
    31  C   -0.298560
    32  C   -0.299660
    33  C   -0.475744
    34  H    0.149470
    35  H    0.149618
    36  H    0.151988
    37  H    0.151981
    38  H    0.155291
    39  H    0.155175
    40  H    0.160280
 Sum of Mulliken charges =  -0.00000
 Mulliken charges with hydrogens summed into heavy atoms:
               1
     1  C    0.001520
     2  C    0.002926
     3  C   -0.004790
    11  C    0.001011
    12  C    0.004201
    13  C   -0.005031
    21  C    0.001847
    22  C    0.003260
    23  C   -0.004783
    31  C    0.000528
    32  C    0.004308
    33  C   -0.004998
 Electronic spatial extent (au):  <R**2>=           6128.7015
 Charge=             -0.0000 electrons
 Dipole moment (field-independent basis, Debye):
    X=              0.0003    Y=              0.0026    Z=              0.0025  Tot=              0.0036
 Quadrupole moment (field-independent basis, Debye-Ang):
   XX=            -84.6809   YY=            -86.5434   ZZ=            -83.5101
   XY=              0.0759   XZ=              1.1081   YZ=              0.0930
 Traceless Quadrupole moment (field-independent basis, Debye-Ang):
   XX=              0.2306   YY=             -1.6320   ZZ=              1.4014
   XY=              0.0759   XZ=              1.1081   YZ=              0.0930
 Octapole moment (field-independent basis, Debye-Ang**2):
  XXX=              0.6723  YYY=              0.0795  ZZZ=             -0.1935  XYY=              0.1842
  XXY=              3.8318  XXZ=              1.2176  XZZ=             -0.2940  YZZ=             -1.0509
  YYZ=              0.1144  XYZ=             -3.4284
 Hexadecapole moment (field-independent basis, Debye-Ang**3):
 XXXX=          -6610.2575 YYYY=          -1296.8622 ZZZZ=           -794.2847 XXXY=              6.3080
 XXXZ=             28.5585 YYYX=             -0.4528 YYYZ=              2.2908 ZZZX=              6.6148
 ZZZY=             -0.7971 XXYY=          -1344.4234 XXZZ=          -1212.7782 YYZZ=           -346.3927
 XXYZ=             -0.5828 YYXZ=              9.5929 ZZXY=              0.3458
 N-N= 6.848534423823D+02 E-N=-2.462829028006D+03  KE= 4.702251818790D+02
 Leave Link  601 at Wed May  5 21:31:33 2021, MaxMem=   524288000 cpu:               0.5 elap:               0.6
 (Enter /opt/gaussian/g16_legacy/l9999.exe)
 1\1\GINC-TRUENO95\SP\RMP2-FC\6-31G(d)\C12H28\JRAMOS\05-May-2021\0\\#p 
 6-31g* mp2\\Input file generated by CHIRIPA (05-May-2021 14:51:12)\\0,
 1\C,0,-0.666,-0.374,0.\C,0,-1.882,0.553,0.\C,0,-3.207,-0.21,0.\H,0,-0.
 713,-1.03,-0.88\H,0,-0.713,-1.029,0.881\H,0,-1.832,1.207,-0.88\H,0,-1.
 832,1.207,0.88\H,0,-3.283,-0.85,0.885\H,0,-3.283,-0.85,-0.885\H,0,-4.0
 63,0.472,0.\C,0,0.666,0.374,0.\C,0,1.882,-0.553,0.\C,0,3.207,0.21,0.\H
 ,0,0.713,1.029,-0.881\H,0,0.713,1.03,0.88\H,0,1.832,-1.207,-0.88\H,0,1
 .832,-1.207,0.88\H,0,3.283,0.85,0.885\H,0,3.283,0.85,-0.885\H,0,4.063,
 -0.472,0.\C,0,-4.020157,2.792229,4.301746\C,0,-2.933141,1.734248,4.109
 247\C,0,-3.365789,0.348202,4.588295\H,0,-4.293349,2.83888,5.364824\H,0
 ,-4.924312,2.48172,3.760004\H,0,-2.030853,2.047333,4.650052\H,0,-2.662
 369,1.690245,3.046532\H,0,-4.251938,0.010715,4.04108\H,0,-3.616833,0.3
 69832,5.653711\H,0,-2.573737,-0.392689,4.441349\C,0,-3.60258,4.183094,
 3.827559\C,0,-4.689596,5.241076,4.020058\C,0,-4.256947,6.627121,3.5410
 09\H,0,-2.698425,4.493603,4.3693\H,0,-3.329388,4.136444,2.764481\H,0,-
 4.960367,5.285078,5.082773\H,0,-5.591883,4.92799,3.479253\H,0,-4.00590
 3,6.605492,2.475594\H,0,-3.370799,6.964608,4.088224\H,0,-5.049,7.36801
 2,3.687955\\Version=EM64L-G16RevA.03\State=1-A\HF=-470.7333699\MP2=-47
 2.3163836\RMSD=1.857e-09\PG=C01 [X(C12H28)]\\@


 THERE'S SMALL CHOICE IN A BOWL OF ROTTEN APPLES.
                     SHAKESPEARE
 Job cpu time:       0 days  0 hours  1 minutes 28.8 seconds.
 Elapsed time:       0 days  0 hours  0 minutes 50.5 seconds.
 File lengths (MBytes):  RWF=     26 Int=      0 D2E=      0 Chk=      5 Scr=      1
 Normal termination of Gaussian 16 at Wed May  5 21:31:34 2021.
