 Entering Gaussian System, Link 0=/opt/gaussian/g16_legacy/g16
 Input=gaussian_00261_2_2.com
 Output=gaussian_00261_2_2.log
 Initial command:
 /opt/gaussian/g16_legacy/l1.exe "/scratch-local/jramos/2597850/Gau-17829.inp" -scrdir="/scratch-local/jramos/2597850/"
 Entering Link 1 = /opt/gaussian/g16_legacy/l1.exe PID=     17830.
  
 Copyright (c) 1988,1990,1992,1993,1995,1998,2003,2009,2016,
            Gaussian, Inc.  All Rights Reserved.
  
 This is part of the Gaussian(R) 16 program.  It is based on
 the Gaussian(R) 09 system (copyright 2009, Gaussian, Inc.),
 the Gaussian(R) 03 system (copyright 2003, Gaussian, Inc.),
 the Gaussian(R) 98 system (copyright 1998, Gaussian, Inc.),
 the Gaussian(R) 94 system (copyright 1995, Gaussian, Inc.),
 the Gaussian 92(TM) system (copyright 1992, Gaussian, Inc.),
 the Gaussian 90(TM) system (copyright 1990, Gaussian, Inc.),
 the Gaussian 88(TM) system (copyright 1988, Gaussian, Inc.),
 the Gaussian 86(TM) system (copyright 1986, Carnegie Mellon
 University), and the Gaussian 82(TM) system (copyright 1983,
 Carnegie Mellon University). Gaussian is a federally registered
 trademark of Gaussian, Inc.
  
 This software contains proprietary and confidential information,
 including trade secrets, belonging to Gaussian, Inc.
  
 This software is provided under written license and may be
 used, copied, transmitted, or stored only in accord with that
 written license.
  
 The following legend is applicable only to US Government
 contracts under FAR:
  
                    RESTRICTED RIGHTS LEGEND
  
 Use, reproduction and disclosure by the US Government is
 subject to restrictions as set forth in subparagraphs (a)
 and (c) of the Commercial Computer Software - Restricted
 Rights clause in FAR 52.227-19.
  
 Gaussian, Inc.
 340 Quinnipiac St., Bldg. 40, Wallingford CT 06492
  
  
 ---------------------------------------------------------------
 Warning -- This program may not be used in any manner that
 competes with the business of Gaussian, Inc. or will provide
 assistance to any competitor of Gaussian, Inc.  The licensee
 of this program is prohibited from giving any competitor of
 Gaussian, Inc. access to this program.  By using this program,
 the user acknowledges that Gaussian, Inc. is engaged in the
 business of creating and licensing software in the field of
 computational chemistry and represents and warrants to the
 licensee that it is not a competitor of Gaussian, Inc. and that
 it will not use this program in any manner prohibited above.
 ---------------------------------------------------------------
  

 Cite this work as:
 Gaussian 16, Revision A.03,
 M. J. Frisch, G. W. Trucks, H. B. Schlegel, G. E. Scuseria, 
 M. A. Robb, J. R. Cheeseman, G. Scalmani, V. Barone, 
 G. A. Petersson, H. Nakatsuji, X. Li, M. Caricato, A. V. Marenich, 
 J. Bloino, B. G. Janesko, R. Gomperts, B. Mennucci, H. P. Hratchian, 
 J. V. Ortiz, A. F. Izmaylov, J. L. Sonnenberg, D. Williams-Young, 
 F. Ding, F. Lipparini, F. Egidi, J. Goings, B. Peng, A. Petrone, 
 T. Henderson, D. Ranasinghe, V. G. Zakrzewski, J. Gao, N. Rega, 
 G. Zheng, W. Liang, M. Hada, M. Ehara, K. Toyota, R. Fukuda, 
 J. Hasegawa, M. Ishida, T. Nakajima, Y. Honda, O. Kitao, H. Nakai, 
 T. Vreven, K. Throssell, J. A. Montgomery, Jr., J. E. Peralta, 
 F. Ogliaro, M. J. Bearpark, J. J. Heyd, E. N. Brothers, K. N. Kudin, 
 V. N. Staroverov, T. A. Keith, R. Kobayashi, J. Normand, 
 K. Raghavachari, A. P. Rendell, J. C. Burant, S. S. Iyengar, 
 J. Tomasi, M. Cossi, J. M. Millam, M. Klene, C. Adamo, R. Cammi, 
 J. W. Ochterski, R. L. Martin, K. Morokuma, O. Farkas, 
 J. B. Foresman, and D. J. Fox, Gaussian, Inc., Wallingford CT, 2016.
 
 ******************************************
 Gaussian 16:  EM64L-G16RevA.03 25-Dec-2016
                 6-May-2021 
 ******************************************
 %chk=gaussian_00261_2_2.chk
 %nproc=2
 Will use up to    2 processors via shared memory.
 %mem=4000Mb
 -------------
 #p 6-31g* mp2
 -------------
 1/38=1,172=1/1;
 2/12=2,17=6,18=5,40=1/2;
 3/5=1,6=6,7=1,11=9,25=1,30=1/1,2,3;
 4//1;
 5/5=2,38=5/2;
 8/10=2/1;
 9/16=-3/6;
 6/7=2,8=2,9=2,10=2/1;
 99/5=1,9=1/99;
 Leave Link    1 at Thu May  6 12:45:21 2021, MaxMem=   524288000 cpu:               0.1 elap:               0.1
 (Enter /opt/gaussian/g16_legacy/l101.exe)
 ------------------------------------------------------
 Input file generated by CHIRIPA (05-May-2021 14:57:21)
 ------------------------------------------------------
 Symbolic Z-matrix:
 Charge =  0 Multiplicity = 1
 C                     1.91414   0.        0. 
 C                     1.21414   1.211     0. 
 C                    -0.18386   1.223     0. 
 C                    -0.85286   0.        0. 
 C                    -0.18386  -1.223     0. 
 C                     1.21414  -1.211     0. 
 H                     3.00014   0.        0. 
 H                     1.75514   2.153     0. 
 H                    -0.75086   2.146     0. 
 H                    -0.75086  -2.146     0. 
 H                     1.75514  -2.153     0. 
 N                    -2.33286   0.        0. 
 O                    -2.89886  -1.091     0. 
 O                    -2.89886   1.091     0. 
 C                    -3.16965   5.32944  -4.14808 
 C                    -2.831     6.68336  -4.05452 
 C                    -1.94552   7.12722  -3.06788 
 C                    -1.41499   6.18565  -2.18738 
 C                    -1.73293   4.83006  -2.25499 
 C                    -2.6205    4.40874  -3.2496 
 H                    -3.85833   4.99339  -4.91762 
 H                    -3.25594   7.40063  -4.75093 
 H                    -1.66618   8.1695   -2.97285 
 H                    -1.29315   4.13868  -1.54647 
 H                    -2.8817    3.35665  -3.3199 
 N                    -0.47646   6.64362  -1.13865 
 O                    -0.02272   5.79415  -0.375 
 O                    -0.21236   7.84337  -1.10016 
 
 ITRead=  0  0  0  0  0  0  0  0  0  0  0  0  0  0  0  0  0  0  0  0
 ITRead=  0  0  0  0  0  0  0  0
 MicOpt= -1 -1 -1 -1 -1 -1 -1 -1 -1 -1 -1 -1 -1 -1 -1 -1 -1 -1 -1 -1
 MicOpt= -1 -1 -1 -1 -1 -1 -1 -1
 NAtoms=     28 NQM=       28 NQMF=       0 NMMI=      0 NMMIF=      0
                NMic=       0 NMicF=      0.
                    Isotopes and Nuclear Properties:
 (Nuclear quadrupole moments (NQMom) in fm**2, nuclear magnetic moments (NMagM)
  in nuclear magnetons)

  Atom         1           2           3           4           5           6           7           8           9          10
 IAtWgt=          12          12          12          12          12          12           1           1           1           1
 AtmWgt=  12.0000000  12.0000000  12.0000000  12.0000000  12.0000000  12.0000000   1.0078250   1.0078250   1.0078250   1.0078250
 NucSpn=           0           0           0           0           0           0           1           1           1           1
 AtZEff=  -0.0000000  -0.0000000  -0.0000000  -0.0000000  -0.0000000  -0.0000000  -0.0000000  -0.0000000  -0.0000000  -0.0000000
 NQMom=    0.0000000   0.0000000   0.0000000   0.0000000   0.0000000   0.0000000   0.0000000   0.0000000   0.0000000   0.0000000
 NMagM=    0.0000000   0.0000000   0.0000000   0.0000000   0.0000000   0.0000000   2.7928460   2.7928460   2.7928460   2.7928460
 AtZNuc=   6.0000000   6.0000000   6.0000000   6.0000000   6.0000000   6.0000000   1.0000000   1.0000000   1.0000000   1.0000000

  Atom        11          12          13          14          15          16          17          18          19          20
 IAtWgt=           1          14          16          16          12          12          12          12          12          12
 AtmWgt=   1.0078250  14.0030740  15.9949146  15.9949146  12.0000000  12.0000000  12.0000000  12.0000000  12.0000000  12.0000000
 NucSpn=           1           2           0           0           0           0           0           0           0           0
 AtZEff=  -0.0000000  -0.0000000  -0.0000000  -0.0000000  -0.0000000  -0.0000000  -0.0000000  -0.0000000  -0.0000000  -0.0000000
 NQMom=    0.0000000   2.0440000   0.0000000   0.0000000   0.0000000   0.0000000   0.0000000   0.0000000   0.0000000   0.0000000
 NMagM=    2.7928460   0.4037610   0.0000000   0.0000000   0.0000000   0.0000000   0.0000000   0.0000000   0.0000000   0.0000000
 AtZNuc=   1.0000000   7.0000000   8.0000000   8.0000000   6.0000000   6.0000000   6.0000000   6.0000000   6.0000000   6.0000000

  Atom        21          22          23          24          25          26          27          28
 IAtWgt=           1           1           1           1           1          14          16          16
 AtmWgt=   1.0078250   1.0078250   1.0078250   1.0078250   1.0078250  14.0030740  15.9949146  15.9949146
 NucSpn=           1           1           1           1           1           2           0           0
 AtZEff=  -0.0000000  -0.0000000  -0.0000000  -0.0000000  -0.0000000  -0.0000000  -0.0000000  -0.0000000
 NQMom=    0.0000000   0.0000000   0.0000000   0.0000000   0.0000000   2.0440000   0.0000000   0.0000000
 NMagM=    2.7928460   2.7928460   2.7928460   2.7928460   2.7928460   0.4037610   0.0000000   0.0000000
 AtZNuc=   1.0000000   1.0000000   1.0000000   1.0000000   1.0000000   7.0000000   8.0000000   8.0000000
 Leave Link  101 at Thu May  6 12:45:21 2021, MaxMem=   524288000 cpu:               0.2 elap:               0.1
 (Enter /opt/gaussian/g16_legacy/l202.exe)
                          Input orientation:                          
 ---------------------------------------------------------------------
 Center     Atomic      Atomic             Coordinates (Angstroms)
 Number     Number       Type             X           Y           Z
 ---------------------------------------------------------------------
      1          6           0        1.914143    0.000000    0.000000
      2          6           0        1.214143    1.211000    0.000000
      3          6           0       -0.183857    1.223000    0.000000
      4          6           0       -0.852857    0.000000    0.000000
      5          6           0       -0.183857   -1.223000    0.000000
      6          6           0        1.214143   -1.211000    0.000000
      7          1           0        3.000143    0.000000    0.000000
      8          1           0        1.755143    2.153000    0.000000
      9          1           0       -0.750857    2.146000    0.000000
     10          1           0       -0.750857   -2.146000    0.000000
     11          1           0        1.755143   -2.153000    0.000000
     12          7           0       -2.332857    0.000000    0.000000
     13          8           0       -2.898857   -1.091000    0.000000
     14          8           0       -2.898857    1.091000    0.000000
     15          6           0       -3.169649    5.329440   -4.148080
     16          6           0       -2.831002    6.683355   -4.054515
     17          6           0       -1.945518    7.127216   -3.067878
     18          6           0       -1.414985    6.185650   -2.187379
     19          6           0       -1.732931    4.830059   -2.254989
     20          6           0       -2.620501    4.408736   -3.249602
     21          1           0       -3.858325    4.993392   -4.917621
     22          1           0       -3.255942    7.400628   -4.750927
     23          1           0       -1.666180    8.169501   -2.972845
     24          1           0       -1.293154    4.138675   -1.546467
     25          1           0       -2.881700    3.356653   -3.319897
     26          7           0       -0.476459    6.643616   -1.138649
     27          8           0       -0.022715    5.794146   -0.375004
     28          8           0       -0.212357    7.843368   -1.100157
 ---------------------------------------------------------------------
                    Distance matrix (angstroms):
                    1          2          3          4          5
     1  C    0.000000
     2  C    1.398757   0.000000
     3  C    2.428443   1.398052   0.000000
     4  C    2.767000   2.395623   1.394019   0.000000
     5  C    2.428443   2.806913   2.446000   1.394019   0.000000
     6  C    1.398757   2.422000   2.806913   2.395623   1.398052
     7  H    1.086000   2.157850   3.410804   3.853000   3.410804
     8  H    2.158863   1.086299   2.150493   3.381874   3.893212
     9  H    3.421628   2.176109   1.083244   2.148423   3.416380
    10  H    3.421628   3.889817   3.416380   2.148423   1.083244
    11  H    2.158863   3.407224   3.893212   3.381874   2.150493
    12  N    4.247000   3.748030   2.472636   1.480000   2.472636
    13  O    4.935104   4.713382   3.567327   2.318706   2.718207
    14  O    4.935104   4.114750   2.718207   2.318706   3.567327
    15  C    8.453073   7.306555   6.556247   7.139820   8.309993
    16  C    9.144546   7.921424   7.298078   8.063460   9.271295
    17  C    8.666376   7.375428   6.882957   7.836006   9.068706
    18  C    7.357308   6.036894   5.561313   6.585050   7.822301
    19  C    6.458761   5.183417   4.527193   5.402682   6.642600
    20  C    7.110546   5.957342   5.161982   5.755122   6.943601
    21  H    9.079557   8.013702   7.204205   7.625601   8.736604
    22  H   10.201489   8.992467   8.376879   9.116766  10.313873
    23  H    9.401982   8.096592   7.699933   8.731555   9.962638
    24  H    5.459574   4.153237   3.481847   4.440051   5.689434
    25  H    6.729706   5.692229   4.780434   5.138583   6.266841
    26  N    7.151862   5.802411   5.546640   6.750987   7.953979
    27  O    6.120799   4.761898   4.589332   5.865313   7.029007
    28  O    8.200657   6.872667   6.711217   7.946006   9.132918
                    6          7          8          9         10
     6  C    0.000000
     7  H    2.157850   0.000000
     8  H    3.407224   2.487053   0.000000
     9  H    3.889817   4.321495   2.506010   0.000000
    10  H    2.176109   4.321495   4.976087   4.292000   0.000000
    11  H    1.086299   2.487053   4.306000   4.976087   2.506010
    12  N    3.748030   5.333000   4.620298   2.666091   2.666091
    13  O    4.114750   5.999040   5.673028   3.884852   2.393100
    14  O    4.713382   5.999040   4.773632   2.393100   3.884852
    15  C    8.899526   9.147449   7.179827   5.761199   8.884781
    16  C    9.753109   9.752363   7.615506   6.430683   9.935975
    17  C    9.429803   9.201557   6.917340   5.970896   9.840306
    18  C    8.149072   7.908239   5.576433   4.641602   8.639565
    19  C    7.089754   7.128565   4.941486   3.640552   7.396948
    20  C    7.539618   7.847834   5.898688   4.378979   7.551162
    21  H    9.402521   9.805893   7.985102   6.476650   9.209249
    22  H   10.803384  10.792553   8.672940   7.513845  10.953760
    23  H   10.253188   9.866769   7.532698   6.779247  10.774283
    24  H    6.107137   6.160567   3.953047   2.580000   6.494828
    25  H    6.975751   7.542209   5.828448   4.126486   6.770628
    26  N    8.114780   7.584255   5.142198   4.647619   8.867309
    27  O    7.123378   6.546024   4.069318   3.738955   7.982276
    28  O    9.231838   8.546866   6.120596   5.827549  10.064184
                   11         12         13         14         15
    11  H    0.000000
    12  N    4.620298   0.000000
    13  O    4.773632   1.229080   0.000000
    14  O    5.673028   1.229080   2.182000   0.000000
    15  C    9.871527   6.805124   7.648656   5.936688   0.000000
    16  C   10.749558   7.832910   8.768369   6.907831   1.398757
    17  C   10.451276   7.769113   8.823820   6.837882   2.428442
    18  C    9.185174   6.624906   7.741843   5.739509   2.767000
    19  C    8.124946   5.364173   6.442305   4.519394   2.428443
    20  C    8.530097   5.484488   6.394098   4.652394   1.398757
    21  H   10.332712   7.172448   7.881840   6.350767   1.086000
    22  H   11.787879   8.842663   9.736866   7.906341   2.158863
    23  H   11.273743   8.719118   9.803784   7.775762   3.421629
    24  H    7.160227   4.538852   5.685010   3.775999   3.421629
    25  H    7.929584   4.752901   5.550102   4.019352   2.158863
    26  N    9.146421   6.991450   8.184670   6.164096   4.247000
    27  O    8.152211   6.248961   7.471148   5.525613   4.935104
    28  O   10.247379   8.199103   9.394177   7.349973   4.935103
                   16         17         18         19         20
    16  C    0.000000
    17  C    1.398051   0.000000
    18  C    2.395623   1.394019   0.000000
    19  C    2.806913   2.445999   1.394019   0.000000
    20  C    2.422001   2.806913   2.395623   1.398052   0.000000
    21  H    2.157851   3.410804   3.853000   3.410804   2.157850
    22  H    1.086298   2.150493   3.381874   3.893211   3.407225
    23  H    2.176109   1.083245   2.148423   3.416379   3.889817
    24  H    3.889817   3.416379   2.148422   1.083245   2.176109
    25  H    3.407225   3.893211   3.381874   2.150494   1.086299
    26  N    3.748030   2.472636   1.480000   2.472635   3.748030
    27  O    4.713382   3.567326   2.318705   2.718206   4.114750
    28  O    4.114749   2.718207   2.318705   3.567326   4.713382
                   21         22         23         24         25
    21  H    0.000000
    22  H    2.487054   0.000000
    23  H    4.321495   2.506010   0.000000
    24  H    4.321495   4.976087   4.292000   0.000000
    25  H    2.487053   4.306000   4.976087   2.506011   0.000000
    26  N    5.333000   4.620297   2.666090   2.666090   4.620298
    27  O    5.999040   5.673028   3.884851   2.393099   4.773632
    28  O    5.999040   4.773631   2.393099   3.884851   5.673028
                   26         27         28
    26  N    0.000000
    27  O    1.229080   0.000000
    28  O    1.229079   2.181999   0.000000
 Stoichiometry    C12H10N2O4
 Framework group  C1[X(C12H10N2O4)]
 Deg. of freedom    78
 Full point group                 C1      NOp   1
 Largest Abelian subgroup         C1      NOp   1
 Largest concise Abelian subgroup C1      NOp   1
                         Standard orientation:                         
 ---------------------------------------------------------------------
 Center     Atomic      Atomic             Coordinates (Angstroms)
 Number     Number       Type             X           Y           Z
 ---------------------------------------------------------------------
      1          6           0       -3.722051    2.182244    1.063503
      2          6           0       -2.488589    1.922810    0.457047
      3          6           0       -2.248841    0.695390   -0.167860
      4          6           0       -3.269473   -0.254135   -0.167562
      5          6           0       -4.508953   -0.025535    0.428024
      6          6           0       -4.726525    1.208959    1.047085
      7          1           0       -3.899679    3.138480    1.546674
      8          1           0       -1.706665    2.676809    0.468257
      9          1           0       -1.303246    0.468181   -0.644981
     10          1           0       -5.269068   -0.796827    0.400618
     11          1           0       -5.685423    1.407675    1.517267
     12          7           0       -3.027401   -1.557294   -0.826028
     13          8           0       -3.942912   -2.377222   -0.812062
     14          8           0       -1.926737   -1.734107   -1.343632
     15          6           0        3.467619   -2.263302    1.078173
     16          6           0        4.630912   -1.531334    0.818371
     17          6           0        4.555190   -0.254542    0.253911
     18          6           0        3.294071    0.261972   -0.039487
     19          6           0        2.116873   -0.442626    0.207566
     20          6           0        2.216518   -1.717573    0.772480
     21          1           0        3.535734   -3.254428    1.516835
     22          1           0        5.603885   -1.952637    1.054743
     23          1           0        5.439728    0.333899    0.042375
     24          1           0        1.161209    0.003867   -0.038949
     25          1           0        1.311409   -2.283747    0.973155
     26          7           0        3.201244    1.612678   -0.637296
     27          8           0        2.078171    2.045340   -0.886589
     28          8           0        4.253318    2.213124   -0.845245
 ---------------------------------------------------------------------
 Rotational constants (GHZ):           0.6327349           0.1639247           0.1411758
 Leave Link  202 at Thu May  6 12:45:22 2021, MaxMem=   524288000 cpu:               0.0 elap:               0.1
 (Enter /opt/gaussian/g16_legacy/l301.exe)
 Standard basis: 6-31G(d) (6D, 7F)
 Ernie: Thresh=  0.10000D-02 Tol=  0.10000D-05 Strict=F.
 There are   290 symmetry adapted cartesian basis functions of A   symmetry.
 There are   290 symmetry adapted basis functions of A   symmetry.
   290 basis functions,   544 primitive gaussians,   290 cartesian basis functions
    64 alpha electrons       64 beta electrons
       nuclear repulsion energy      1141.3967629953 Hartrees.
 IExCor=    0 DFT=F Ex=HF Corr=None ExCW=0 ScaHFX=  1.000000
 ScaDFX=  1.000000  1.000000  1.000000  1.000000 ScalE2=  1.000000  1.000000
 IRadAn=      5 IRanWt=     -1 IRanGd=            0 ICorTp=0 IEmpDi=  4
 NAtoms=   28 NActive=   28 NUniq=   28 SFac= 1.00D+00 NAtFMM=   60 NAOKFM=F Big=F
 Integral buffers will be    131072 words long.
 Raffenetti 1 integral format.
 Two-electron integral symmetry is turned on.
 Leave Link  301 at Thu May  6 12:45:22 2021, MaxMem=   524288000 cpu:               0.2 elap:               0.1
 (Enter /opt/gaussian/g16_legacy/l302.exe)
 NPDir=0 NMtPBC=     1 NCelOv=     1 NCel=       1 NClECP=     1 NCelD=      1
         NCelK=      1 NCelE2=     1 NClLst=     1 CellRange=     0.0.
 One-electron integrals computed using PRISM.
 One-electron integral symmetry used in STVInt
 NBasis=   290 RedAO= T EigKep=  4.58D-04  NBF=   290
 NBsUse=   290 1.00D-06 EigRej= -1.00D+00 NBFU=   290
 Leave Link  302 at Thu May  6 12:45:23 2021, MaxMem=   524288000 cpu:               0.6 elap:               0.5
 (Enter /opt/gaussian/g16_legacy/l303.exe)
 DipDrv:  MaxL=1.
 Leave Link  303 at Thu May  6 12:45:23 2021, MaxMem=   524288000 cpu:               0.1 elap:               0.1
 (Enter /opt/gaussian/g16_legacy/l401.exe)
 ExpMin= 1.61D-01 ExpMax= 5.48D+03 ExpMxC= 8.25D+02 IAcc=3 IRadAn=         5 AccDes= 0.00D+00
 Harris functional with IExCor=  205 and IRadAn=       5 diagonalized for initial guess.
 HarFok:  IExCor=  205 AccDes= 0.00D+00 IRadAn=         5 IDoV= 1 UseB2=F ITyADJ=14
 ICtDFT=  3500011 ScaDFX=  1.000000  1.000000  1.000000  1.000000
 FoFCou: FMM=F IPFlag=           0 FMFlag=      100000 FMFlg1=           0
         NFxFlg=           0 DoJE=T BraDBF=F KetDBF=T FulRan=T
         wScrn=  0.000000 ICntrl=       500 IOpCl=  0 I1Cent=   200000004 NGrid=           0
         NMat0=    1 NMatS0=      1 NMatT0=    0 NMatD0=    1 NMtDS0=    0 NMtDT0=    0
 Petite list used in FoFCou.
 Harris En= -869.212466790523    
 JPrj=0 DoOrth=F DoCkMO=F.
 Leave Link  401 at Thu May  6 12:45:27 2021, MaxMem=   524288000 cpu:               7.3 elap:               3.8
 (Enter /opt/gaussian/g16_legacy/l502.exe)
 Integral symmetry usage will be decided dynamically.
 Closed shell SCF:
 Using DIIS extrapolation, IDIIS=  1040.
 NGot=   524288000 LenX=   524114954 LenY=   524030413
 Requested convergence on RMS density matrix=1.00D-08 within 128 cycles.
 Requested convergence on MAX density matrix=1.00D-06.
 Requested convergence on             energy=1.00D-06.
 No special actions if energy rises.
 Fock matrices will be formed incrementally for  20 cycles.
 Integral accuracy reduced to 1.0D-05 until final iterations.

 Cycle   1  Pass 0  IDiag  1:
 FoFJK:  IHMeth= 1 ICntrl=       0 DoSepK=F KAlg= 0 I1Cent=           0 FoldK=F
 IRaf= 700000000 NMat=       1 IRICut=       1 DoRegI=T DoRafI=F ISym2E= 0 IDoP0=0 IntGTp=1.
 FoFCou: FMM=F IPFlag=           0 FMFlag=      100000 FMFlg1=           0
         NFxFlg=           0 DoJE=F BraDBF=F KetDBF=F FulRan=T
         wScrn=  0.000000 ICntrl=         0 IOpCl=  0 I1Cent=           0 NGrid=           0
         NMat0=    1 NMatS0=      1 NMatT0=    0 NMatD0=    1 NMtDS0=    0 NMtDT0=    0
 Symmetry not used in FoFCou.
 E= -867.609888474656    
 DIIS: error= 5.70D-02 at cycle   1 NSaved=   1.
 NSaved= 1 IEnMin= 1 EnMin= -867.609888474656     IErMin= 1 ErrMin= 5.70D-02
 ErrMax= 5.70D-02  0.00D+00 EMaxC= 1.00D-01 BMatC= 1.28D+00 BMatP= 1.28D+00
 IDIUse=3 WtCom= 4.30D-01 WtEn= 5.70D-01
 Coeff-Com:  0.100D+01
 Coeff-En:   0.100D+01
 Coeff:      0.100D+01
 Gap=     0.557 Goal=   None    Shift=    0.000
 GapD=    0.557 DampG=2.000 DampE=0.500 DampFc=1.0000 IDamp=-1.
 RMSDP=4.49D-03 MaxDP=1.07D-01              OVMax= 1.53D-01

 Cycle   2  Pass 0  IDiag  1:
 RMSU=  4.38D-03    CP:  9.51D-01
 E= -868.121101802991     Delta-E=       -0.511213328336 Rises=F Damp=F
 DIIS: error= 3.70D-02 at cycle   2 NSaved=   2.
 NSaved= 2 IEnMin= 2 EnMin= -868.121101802991     IErMin= 2 ErrMin= 3.70D-02
 ErrMax= 3.70D-02  0.00D+00 EMaxC= 1.00D-01 BMatC= 2.90D-01 BMatP= 1.28D+00
 IDIUse=3 WtCom= 6.30D-01 WtEn= 3.70D-01
 Coeff-Com:  0.268D+00 0.732D+00
 Coeff-En:   0.000D+00 0.100D+01
 Coeff:      0.169D+00 0.831D+00
 Gap=     0.473 Goal=   None    Shift=    0.000
 RMSDP=1.89D-03 MaxDP=8.47D-02 DE=-5.11D-01 OVMax= 1.24D-01

 Cycle   3  Pass 0  IDiag  1:
 RMSU=  1.67D-03    CP:  9.54D-01  7.99D-01
 E= -868.285921866249     Delta-E=       -0.164820063257 Rises=F Damp=F
 DIIS: error= 1.92D-02 at cycle   3 NSaved=   3.
 NSaved= 3 IEnMin= 3 EnMin= -868.285921866249     IErMin= 3 ErrMin= 1.92D-02
 ErrMax= 1.92D-02  0.00D+00 EMaxC= 1.00D-01 BMatC= 7.17D-02 BMatP= 2.90D-01
 IDIUse=3 WtCom= 8.08D-01 WtEn= 1.92D-01
 Coeff-Com: -0.227D-01 0.316D+00 0.707D+00
 Coeff-En:   0.000D+00 0.903D-01 0.910D+00
 Coeff:     -0.183D-01 0.272D+00 0.746D+00
 Gap=     0.425 Goal=   None    Shift=    0.000
 RMSDP=7.10D-04 MaxDP=3.12D-02 DE=-1.65D-01 OVMax= 4.74D-02

 Cycle   4  Pass 0  IDiag  1:
 RMSU=  3.83D-04    CP:  9.53D-01  8.99D-01  7.57D-01
 E= -868.336807138415     Delta-E=       -0.050885272167 Rises=F Damp=F
 DIIS: error= 4.05D-03 at cycle   4 NSaved=   4.
 NSaved= 4 IEnMin= 4 EnMin= -868.336807138415     IErMin= 4 ErrMin= 4.05D-03
 ErrMax= 4.05D-03  0.00D+00 EMaxC= 1.00D-01 BMatC= 2.80D-03 BMatP= 7.17D-02
 IDIUse=3 WtCom= 9.60D-01 WtEn= 4.05D-02
 Coeff-Com: -0.124D-01 0.489D-01 0.241D+00 0.722D+00
 Coeff-En:   0.000D+00 0.000D+00 0.000D+00 0.100D+01
 Coeff:     -0.119D-01 0.469D-01 0.232D+00 0.733D+00
 Gap=     0.409 Goal=   None    Shift=    0.000
 RMSDP=1.73D-04 MaxDP=6.08D-03 DE=-5.09D-02 OVMax= 1.04D-02

 Cycle   5  Pass 0  IDiag  1:
 RMSU=  1.14D-04    CP:  9.52D-01  9.00D-01  8.23D-01  8.27D-01
 E= -868.339194331709     Delta-E=       -0.002387193294 Rises=F Damp=F
 DIIS: error= 5.30D-04 at cycle   5 NSaved=   5.
 NSaved= 5 IEnMin= 5 EnMin= -868.339194331709     IErMin= 5 ErrMin= 5.30D-04
 ErrMax= 5.30D-04  0.00D+00 EMaxC= 1.00D-01 BMatC= 8.72D-05 BMatP= 2.80D-03
 IDIUse=3 WtCom= 9.95D-01 WtEn= 5.30D-03
 Coeff-Com:  0.199D-02-0.249D-01-0.642D-01 0.167D-01 0.107D+01
 Coeff-En:   0.000D+00 0.000D+00 0.000D+00 0.000D+00 0.100D+01
 Coeff:      0.198D-02-0.247D-01-0.639D-01 0.166D-01 0.107D+01
 Gap=     0.411 Goal=   None    Shift=    0.000
 RMSDP=5.85D-05 MaxDP=1.58D-03 DE=-2.39D-03 OVMax= 4.48D-03

 Cycle   6  Pass 0  IDiag  1:
 RMSU=  2.87D-05    CP:  9.52D-01  9.04D-01  8.33D-01  9.26D-01  1.21D+00
 E= -868.339367091490     Delta-E=       -0.000172759781 Rises=F Damp=F
 DIIS: error= 2.83D-04 at cycle   6 NSaved=   6.
 NSaved= 6 IEnMin= 6 EnMin= -868.339367091490     IErMin= 6 ErrMin= 2.83D-04
 ErrMax= 2.83D-04  0.00D+00 EMaxC= 1.00D-01 BMatC= 1.03D-05 BMatP= 8.72D-05
 IDIUse=3 WtCom= 9.97D-01 WtEn= 2.83D-03
 Coeff-Com:  0.127D-02-0.777D-02-0.303D-01-0.599D-01 0.840D-01 0.101D+01
 Coeff-En:   0.000D+00 0.000D+00 0.000D+00 0.000D+00 0.000D+00 0.100D+01
 Coeff:      0.127D-02-0.775D-02-0.303D-01-0.597D-01 0.838D-01 0.101D+01
 Gap=     0.411 Goal=   None    Shift=    0.000
 RMSDP=2.28D-05 MaxDP=4.82D-04 DE=-1.73D-04 OVMax= 1.69D-03

 Cycle   7  Pass 0  IDiag  1:
 RMSU=  1.09D-05    CP:  9.52D-01  9.04D-01  8.37D-01  9.47D-01  1.35D+00
                    CP:  1.26D+00
 E= -868.339396629011     Delta-E=       -0.000029537521 Rises=F Damp=F
 DIIS: error= 1.50D-04 at cycle   7 NSaved=   7.
 NSaved= 7 IEnMin= 7 EnMin= -868.339396629011     IErMin= 7 ErrMin= 1.50D-04
 ErrMax= 1.50D-04  0.00D+00 EMaxC= 1.00D-01 BMatC= 2.16D-06 BMatP= 1.03D-05
 IDIUse=3 WtCom= 9.99D-01 WtEn= 1.50D-03
 Coeff-Com: -0.121D-03 0.244D-02 0.533D-02-0.556D-02-0.141D+00 0.924D-01
 Coeff-Com:  0.105D+01
 Coeff-En:   0.000D+00 0.000D+00 0.000D+00 0.000D+00 0.000D+00 0.000D+00
 Coeff-En:   0.100D+01
 Coeff:     -0.121D-03 0.244D-02 0.533D-02-0.555D-02-0.141D+00 0.922D-01
 Coeff:      0.105D+01
 Gap=     0.411 Goal=   None    Shift=    0.000
 RMSDP=1.06D-05 MaxDP=3.98D-04 DE=-2.95D-05 OVMax= 1.23D-03

 Cycle   8  Pass 0  IDiag  1:
 RMSU=  5.67D-06    CP:  9.52D-01  9.05D-01  8.36D-01  9.53D-01  1.38D+00
                    CP:  1.49D+00  1.29D+00
 E= -868.339404506721     Delta-E=       -0.000007877710 Rises=F Damp=F
 DIIS: error= 8.82D-05 at cycle   8 NSaved=   8.
 NSaved= 8 IEnMin= 8 EnMin= -868.339404506721     IErMin= 8 ErrMin= 8.82D-05
 ErrMax= 8.82D-05  0.00D+00 EMaxC= 1.00D-01 BMatC= 6.40D-07 BMatP= 2.16D-06
 IDIUse=1 WtCom= 1.00D+00 WtEn= 0.00D+00
 Coeff-Com: -0.333D-03 0.250D-02 0.877D-02 0.145D-01-0.516D-01-0.230D+00
 Coeff-Com:  0.207D+00 0.105D+01
 Coeff:     -0.333D-03 0.250D-02 0.877D-02 0.145D-01-0.516D-01-0.230D+00
 Coeff:      0.207D+00 0.105D+01
 Gap=     0.411 Goal=   None    Shift=    0.000
 RMSDP=6.60D-06 MaxDP=1.86D-04 DE=-7.88D-06 OVMax= 6.94D-04

 Initial convergence to 1.0D-05 achieved.  Increase integral accuracy.
 Cycle   9  Pass 1  IDiag  1:
 E= -868.339403610726     Delta-E=        0.000000895995 Rises=F Damp=F
 DIIS: error= 4.78D-05 at cycle   1 NSaved=   1.
 NSaved= 1 IEnMin= 1 EnMin= -868.339403610726     IErMin= 1 ErrMin= 4.78D-05
 ErrMax= 4.78D-05  0.00D+00 EMaxC= 1.00D-01 BMatC= 3.99D-07 BMatP= 3.99D-07
 IDIUse=1 WtCom= 1.00D+00 WtEn= 0.00D+00
 Coeff-Com:  0.100D+01
 Coeff:      0.100D+01
 Gap=     0.411 Goal=   None    Shift=    0.000
 RMSDP=6.60D-06 MaxDP=1.86D-04 DE= 8.96D-07 OVMax= 2.18D-04

 Cycle  10  Pass 1  IDiag  1:
 RMSU=  2.15D-05    CP:  1.00D+00
 E= -868.339404186184     Delta-E=       -0.000000575458 Rises=F Damp=F
 DIIS: error= 2.12D-05 at cycle   2 NSaved=   2.
 NSaved= 2 IEnMin= 2 EnMin= -868.339404186184     IErMin= 2 ErrMin= 2.12D-05
 ErrMax= 2.12D-05  0.00D+00 EMaxC= 1.00D-01 BMatC= 7.71D-08 BMatP= 3.99D-07
 IDIUse=1 WtCom= 1.00D+00 WtEn= 0.00D+00
 Coeff-Com:  0.129D+00 0.871D+00
 Coeff:      0.129D+00 0.871D+00
 Gap=     0.411 Goal=   None    Shift=    0.000
 RMSDP=1.61D-06 MaxDP=4.48D-05 DE=-5.75D-07 OVMax= 1.26D-04

 Cycle  11  Pass 1  IDiag  1:
 RMSU=  1.39D-06    CP:  1.00D+00  1.04D+00
 E= -868.339404337994     Delta-E=       -0.000000151810 Rises=F Damp=F
 DIIS: error= 1.60D-05 at cycle   3 NSaved=   3.
 NSaved= 3 IEnMin= 3 EnMin= -868.339404337994     IErMin= 3 ErrMin= 1.60D-05
 ErrMax= 1.60D-05  0.00D+00 EMaxC= 1.00D-01 BMatC= 3.78D-08 BMatP= 7.71D-08
 IDIUse=1 WtCom= 1.00D+00 WtEn= 0.00D+00
 Coeff-Com: -0.969D-01 0.338D+00 0.759D+00
 Coeff:     -0.969D-01 0.338D+00 0.759D+00
 Gap=     0.411 Goal=   None    Shift=    0.000
 RMSDP=9.34D-07 MaxDP=2.60D-05 DE=-1.52D-07 OVMax= 9.22D-05

 Cycle  12  Pass 1  IDiag  1:
 RMSU=  8.31D-07    CP:  1.00D+00  1.05D+00  1.19D+00
 E= -868.339404425000     Delta-E=       -0.000000087006 Rises=F Damp=F
 DIIS: error= 1.08D-05 at cycle   4 NSaved=   4.
 NSaved= 4 IEnMin= 4 EnMin= -868.339404425000     IErMin= 4 ErrMin= 1.08D-05
 ErrMax= 1.08D-05  0.00D+00 EMaxC= 1.00D-01 BMatC= 8.57D-09 BMatP= 3.78D-08
 IDIUse=1 WtCom= 1.00D+00 WtEn= 0.00D+00
 Coeff-Com:  0.215D-01-0.610D+00-0.558D+00 0.215D+01
 Coeff:      0.215D-01-0.610D+00-0.558D+00 0.215D+01
 Gap=     0.411 Goal=   None    Shift=    0.000
 RMSDP=1.52D-06 MaxDP=3.71D-05 DE=-8.70D-08 OVMax= 1.80D-04

 Cycle  13  Pass 1  IDiag  1:
 RMSU=  2.62D-07    CP:  1.00D+00  1.06D+00  2.00D+00  2.18D+00
 E= -868.339404487075     Delta-E=       -0.000000062075 Rises=F Damp=F
 DIIS: error= 1.22D-06 at cycle   5 NSaved=   5.
 NSaved= 5 IEnMin= 5 EnMin= -868.339404487075     IErMin= 5 ErrMin= 1.22D-06
 ErrMax= 1.22D-06  0.00D+00 EMaxC= 1.00D-01 BMatC= 2.69D-10 BMatP= 8.57D-09
 IDIUse=1 WtCom= 1.00D+00 WtEn= 0.00D+00
 Coeff-Com:  0.103D-01-0.154D+00-0.165D+00 0.478D+00 0.831D+00
 Coeff:      0.103D-01-0.154D+00-0.165D+00 0.478D+00 0.831D+00
 Gap=     0.411 Goal=   None    Shift=    0.000
 RMSDP=1.32D-07 MaxDP=4.82D-06 DE=-6.21D-08 OVMax= 1.62D-05

 Cycle  14  Pass 1  IDiag  1:
 RMSU=  5.78D-08    CP:  1.00D+00  1.06D+00  2.06D+00  2.28D+00  1.14D+00
 E= -868.339404487818     Delta-E=       -0.000000000742 Rises=F Damp=F
 DIIS: error= 3.82D-07 at cycle   6 NSaved=   6.
 NSaved= 6 IEnMin= 6 EnMin= -868.339404487818     IErMin= 6 ErrMin= 3.82D-07
 ErrMax= 3.82D-07  0.00D+00 EMaxC= 1.00D-01 BMatC= 3.19D-11 BMatP= 2.69D-10
 IDIUse=1 WtCom= 1.00D+00 WtEn= 0.00D+00
 Coeff-Com: -0.365D-02 0.880D-01 0.829D-01-0.303D+00-0.810D-01 0.122D+01
 Coeff:     -0.365D-02 0.880D-01 0.829D-01-0.303D+00-0.810D-01 0.122D+01
 Gap=     0.411 Goal=   None    Shift=    0.000
 RMSDP=5.28D-08 MaxDP=9.89D-07 DE=-7.42D-10 OVMax= 3.77D-06

 Cycle  15  Pass 1  IDiag  1:
 RMSU=  3.07D-08    CP:  1.00D+00  1.06D+00  2.06D+00  2.29D+00  1.28D+00
                    CP:  1.36D+00
 E= -868.339404487925     Delta-E=       -0.000000000108 Rises=F Damp=F
 DIIS: error= 1.17D-07 at cycle   7 NSaved=   7.
 NSaved= 7 IEnMin= 7 EnMin= -868.339404487925     IErMin= 7 ErrMin= 1.17D-07
 ErrMax= 1.17D-07  0.00D+00 EMaxC= 1.00D-01 BMatC= 4.18D-12 BMatP= 3.19D-11
 IDIUse=1 WtCom= 1.00D+00 WtEn= 0.00D+00
 Coeff-Com: -0.227D-02 0.430D-01 0.428D-01-0.141D+00-0.122D+00 0.329D+00
 Coeff-Com:  0.851D+00
 Coeff:     -0.227D-02 0.430D-01 0.428D-01-0.141D+00-0.122D+00 0.329D+00
 Coeff:      0.851D+00
 Gap=     0.411 Goal=   None    Shift=    0.000
 RMSDP=1.39D-08 MaxDP=4.67D-07 DE=-1.08D-10 OVMax= 1.27D-06

 Cycle  16  Pass 1  IDiag  1:
 RMSU=  7.94D-09    CP:  1.00D+00  1.06D+00  2.06D+00  2.30D+00  1.30D+00
                    CP:  1.50D+00  1.17D+00
 E= -868.339404487920     Delta-E=        0.000000000005 Rises=F Damp=F
 DIIS: error= 2.79D-08 at cycle   8 NSaved=   8.
 NSaved= 8 IEnMin= 7 EnMin= -868.339404487925     IErMin= 8 ErrMin= 2.79D-08
 ErrMax= 2.79D-08  0.00D+00 EMaxC= 1.00D-01 BMatC= 1.35D-13 BMatP= 4.18D-12
 IDIUse=1 WtCom= 1.00D+00 WtEn= 0.00D+00
 Coeff-Com:  0.151D-03-0.403D-02-0.382D-02 0.143D-01 0.230D-02-0.673D-01
 Coeff-Com:  0.279D-01 0.103D+01
 Coeff:      0.151D-03-0.403D-02-0.382D-02 0.143D-01 0.230D-02-0.673D-01
 Coeff:      0.279D-01 0.103D+01
 Gap=     0.411 Goal=   None    Shift=    0.000
 RMSDP=3.33D-09 MaxDP=6.81D-08 DE= 5.46D-12 OVMax= 2.80D-07

 SCF Done:  E(RHF) =  -868.339404488     A.U. after   16 cycles
            NFock= 16  Conv=0.33D-08     -V/T= 2.0031
 KE= 8.656966793529D+02 PE=-4.315783035252D+03 EE= 1.440350188416D+03
 Leave Link  502 at Thu May  6 12:46:03 2021, MaxMem=   524288000 cpu:              72.6 elap:              36.5
 (Enter /opt/gaussian/g16_legacy/l801.exe)
 ExpMin= 1.61D-01 ExpMax= 5.48D+03 ExpMxC= 8.25D+02 IAcc=3 IRadAn=         5 AccDes= 0.00D+00
 HarFok:  IExCor=  205 AccDes= 0.00D+00 IRadAn=         5 IDoV=-2 UseB2=F ITyADJ=14
 ICtDFT= 12500011 ScaDFX=  1.000000  1.000000  1.000000  1.000000
 Largest valence mixing into a core orbital is  1.94D-04
 Largest core mixing into a valence orbital is  4.00D-05
 Range of M.O.s used for correlation:    19   290
 NBasis=   290 NAE=    64 NBE=    64 NFC=    18 NFV=     0
 NROrb=    272 NOA=    46 NOB=    46 NVA=   226 NVB=   226
 Leave Link  801 at Thu May  6 12:46:04 2021, MaxMem=   524288000 cpu:               1.0 elap:               0.7
 (Enter /opt/gaussian/g16_legacy/l906.exe)
 FulOut=F Deriv=F AODrv=F NAtomX=    28
   MMem=          85  MDisk=          46 MDiskD=          46
  W3Min=     3014840 MinDsk=     3114491 NBas6D=         290
 NBas2D=       42681    NTT=       42195    LW2=     2000000
    MDV=   523939926 MDiskM=       24997 NBas2p=       28226
 Fully direct method using O(OVN) memory.
 IMap=   1   2   3   4   5   6   7   8   9  10  11  12  13  14  15  16  17  18  19  20
 IMap=  21  22  23  24  25  26  27  28  29  30  31  32  33  34  35  36  37  38  39  40
 IMap=  41  42  43  44  45  46
 JobTyp=1 Pass  1:  I=   1 to  46 NPSUse=  2 ParTrn=T ParDer=T DoDerP=F.
 Spin components of T(2) and E(2):
     alpha-alpha T2 =       0.1269515695D+00 E2=     -0.3594289274D+00
     alpha-beta  T2 =       0.6473039057D+00 E2=     -0.1880273513D+01
     beta-beta   T2 =       0.1269515695D+00 E2=     -0.3594289274D+00
 The integrals were generated   1 times.
 ANorm=    0.1378842647D+01
 E2 =    -0.2599131368D+01 EUMP2 =    -0.87093853585588D+03
 Leave Link  906 at Thu May  6 12:47:27 2021, MaxMem=   524288000 cpu:             164.6 elap:              82.6
 (Enter /opt/gaussian/g16_legacy/l601.exe)
 Copying SCF densities to generalized density rwf, IOpCl= 0 IROHF=0.

 **********************************************************************

            Population analysis using the SCF density.

 **********************************************************************

 Orbital symmetries:
       Occupied  (A) (A) (A) (A) (A) (A) (A) (A) (A) (A) (A) (A)
                 (A) (A) (A) (A) (A) (A) (A) (A) (A) (A) (A) (A)
                 (A) (A) (A) (A) (A) (A) (A) (A) (A) (A) (A) (A)
                 (A) (A) (A) (A) (A) (A) (A) (A) (A) (A) (A) (A)
                 (A) (A) (A) (A) (A) (A) (A) (A) (A) (A) (A) (A)
                 (A) (A) (A) (A)
       Virtual   (A) (A) (A) (A) (A) (A) (A) (A) (A) (A) (A) (A)
                 (A) (A) (A) (A) (A) (A) (A) (A) (A) (A) (A) (A)
                 (A) (A) (A) (A) (A) (A) (A) (A) (A) (A) (A) (A)
                 (A) (A) (A) (A) (A) (A) (A) (A) (A) (A) (A) (A)
                 (A) (A) (A) (A) (A) (A) (A) (A) (A) (A) (A) (A)
                 (A) (A) (A) (A) (A) (A) (A) (A) (A) (A) (A) (A)
                 (A) (A) (A) (A) (A) (A) (A) (A) (A) (A) (A) (A)
                 (A) (A) (A) (A) (A) (A) (A) (A) (A) (A) (A) (A)
                 (A) (A) (A) (A) (A) (A) (A) (A) (A) (A) (A) (A)
                 (A) (A) (A) (A) (A) (A) (A) (A) (A) (A) (A) (A)
                 (A) (A) (A) (A) (A) (A) (A) (A) (A) (A) (A) (A)
                 (A) (A) (A) (A) (A) (A) (A) (A) (A) (A) (A) (A)
                 (A) (A) (A) (A) (A) (A) (A) (A) (A) (A) (A) (A)
                 (A) (A) (A) (A) (A) (A) (A) (A) (A) (A) (A) (A)
                 (A) (A) (A) (A) (A) (A) (A) (A) (A) (A) (A) (A)
                 (A) (A) (A) (A) (A) (A) (A) (A) (A) (A) (A) (A)
                 (A) (A) (A) (A) (A) (A) (A) (A) (A) (A) (A) (A)
                 (A) (A) (A) (A) (A) (A) (A) (A) (A) (A) (A) (A)
                 (A) (A) (A) (A) (A) (A) (A) (A) (A) (A)
 The electronic state is 1-A.
 Alpha  occ. eigenvalues --  -20.61090 -20.61057 -20.61011 -20.60970 -15.86116
 Alpha  occ. eigenvalues --  -15.86036 -11.31316 -11.31184 -11.27843 -11.27840
 Alpha  occ. eigenvalues --  -11.27744 -11.27709 -11.27502 -11.27375 -11.26834
 Alpha  occ. eigenvalues --  -11.26723 -11.26692 -11.26605  -1.60152  -1.60060
 Alpha  occ. eigenvalues --   -1.39711  -1.39627  -1.19450  -1.19319  -1.08871
 Alpha  occ. eigenvalues --   -1.08749  -1.04813  -1.04680  -0.95742  -0.95628
 Alpha  occ. eigenvalues --   -0.86226  -0.86092  -0.82566  -0.82465  -0.77683
 Alpha  occ. eigenvalues --   -0.77518  -0.72339  -0.72266  -0.71473  -0.71370
 Alpha  occ. eigenvalues --   -0.70593  -0.70402  -0.65092  -0.64970  -0.64826
 Alpha  occ. eigenvalues --   -0.64640  -0.62270  -0.61927  -0.55322  -0.55175
 Alpha  occ. eigenvalues --   -0.53168  -0.53022  -0.52942  -0.52695  -0.49109
 Alpha  occ. eigenvalues --   -0.49073  -0.49037  -0.48986  -0.45154  -0.45079
 Alpha  occ. eigenvalues --   -0.37416  -0.37278  -0.36412  -0.36264
 Alpha virt. eigenvalues --    0.04831   0.04971   0.11198   0.11383   0.16401
 Alpha virt. eigenvalues --    0.16533   0.19733   0.22168   0.24945   0.27783
 Alpha virt. eigenvalues --    0.28038   0.29637   0.31094   0.31323   0.31699
 Alpha virt. eigenvalues --    0.34132   0.34415   0.35956   0.36557   0.40728
 Alpha virt. eigenvalues --    0.43032   0.43465   0.44275   0.46029   0.46287
 Alpha virt. eigenvalues --    0.47186   0.49072   0.49581   0.51004   0.51265
 Alpha virt. eigenvalues --    0.56147   0.57146   0.67137   0.67366   0.68708
 Alpha virt. eigenvalues --    0.68834   0.70218   0.71070   0.71937   0.72200
 Alpha virt. eigenvalues --    0.77745   0.78054   0.78634   0.78807   0.78913
 Alpha virt. eigenvalues --    0.78997   0.79260   0.79607   0.80048   0.80202
 Alpha virt. eigenvalues --    0.80742   0.80885   0.81841   0.82472   0.85692
 Alpha virt. eigenvalues --    0.85812   0.87645   0.87751   0.87964   0.88134
 Alpha virt. eigenvalues --    0.93389   0.93548   0.96404   0.96704   1.00049
 Alpha virt. eigenvalues --    1.00423   1.01457   1.01664   1.04213   1.04596
 Alpha virt. eigenvalues --    1.06617   1.07156   1.08232   1.08513   1.08636
 Alpha virt. eigenvalues --    1.08898   1.09376   1.13702   1.14633   1.15649
 Alpha virt. eigenvalues --    1.16604   1.16939   1.17599   1.18995   1.19689
 Alpha virt. eigenvalues --    1.22764   1.22898   1.23420   1.23581   1.24291
 Alpha virt. eigenvalues --    1.27458   1.28027   1.28115   1.28440   1.30632
 Alpha virt. eigenvalues --    1.30873   1.31735   1.33033   1.34199   1.37615
 Alpha virt. eigenvalues --    1.40334   1.41446   1.46281   1.46785   1.47061
 Alpha virt. eigenvalues --    1.47136   1.52349   1.52426   1.53347   1.53580
 Alpha virt. eigenvalues --    1.59796   1.60560   1.65203   1.65241   1.66450
 Alpha virt. eigenvalues --    1.66875   1.67106   1.67218   1.67628   1.68088
 Alpha virt. eigenvalues --    1.72502   1.72584   1.73258   1.73365   1.73396
 Alpha virt. eigenvalues --    1.73548   1.75483   1.75611   1.96846   1.97007
 Alpha virt. eigenvalues --    1.99143   1.99182   1.99644   1.99719   2.04231
 Alpha virt. eigenvalues --    2.04444   2.04678   2.04940   2.09726   2.09804
 Alpha virt. eigenvalues --    2.12225   2.12379   2.13004   2.13971   2.21485
 Alpha virt. eigenvalues --    2.21500   2.21663   2.21713   2.24552   2.24731
 Alpha virt. eigenvalues --    2.27158   2.27427   2.32756   2.32888   2.36047
 Alpha virt. eigenvalues --    2.36242   2.37500   2.37606   2.42880   2.42963
 Alpha virt. eigenvalues --    2.43059   2.43151   2.44493   2.44709   2.45566
 Alpha virt. eigenvalues --    2.45687   2.46705   2.46842   2.58012   2.58121
 Alpha virt. eigenvalues --    2.58524   2.58643   2.59505   2.59591   2.70010
 Alpha virt. eigenvalues --    2.70578   2.81244   2.81494   2.83259   2.83336
 Alpha virt. eigenvalues --    2.91645   2.91807   2.91833   2.91950   2.92237
 Alpha virt. eigenvalues --    2.92368   2.99707   2.99859   3.04475   3.04574
 Alpha virt. eigenvalues --    3.04784   3.04872   3.06955   3.07121   3.10486
 Alpha virt. eigenvalues --    3.10902   3.23316   3.23443   3.24125   3.24687
 Alpha virt. eigenvalues --    3.27351   3.27590   3.42862   3.43019   3.52668
 Alpha virt. eigenvalues --    3.52953   3.76914   3.77041   4.12763   4.13027
 Alpha virt. eigenvalues --    4.28262   4.28666   4.37505   4.38178   4.47955
 Alpha virt. eigenvalues --    4.48184   4.50679   4.51159   4.52864   4.53528
 Alpha virt. eigenvalues --    4.71881   4.72402   4.76600   4.76754   5.08823
 Alpha virt. eigenvalues --    5.09005
          Condensed to atoms (all electrons):
               1          2          3          4          5          6
     1  C    4.879267   0.540127  -0.045141  -0.029086  -0.045461   0.541054
     2  C    0.540127   4.934611   0.523884  -0.039338  -0.030569  -0.042947
     3  C   -0.045141   0.523884   4.934450   0.542859  -0.051696  -0.030835
     4  C   -0.029086  -0.039338   0.542859   4.829003   0.547626  -0.039683
     5  C   -0.045461  -0.030569  -0.051696   0.547626   4.919545   0.522730
     6  C    0.541054  -0.042947  -0.030835  -0.039683   0.522730   4.933031
     7  H    0.381298  -0.027593   0.002206   0.000213   0.002178  -0.028192
     8  H   -0.027367   0.381621  -0.025809   0.001571   0.000196   0.002286
     9  H    0.001935  -0.022907   0.365495  -0.021541   0.002451  -0.000056
    10  H    0.001946  -0.000079   0.002560  -0.020083   0.368963  -0.024036
    11  H   -0.027585   0.002327   0.000189   0.001578  -0.027450   0.382610
    12  N   -0.000004   0.001542  -0.044331   0.243645  -0.044675   0.001532
    13  O   -0.000003  -0.000028   0.003703  -0.087744   0.003919   0.000766
    14  O   -0.000005   0.000796   0.004295  -0.088109   0.003667  -0.000026
    15  C   -0.000000   0.000000   0.000000   0.000000  -0.000000  -0.000000
    16  C    0.000000  -0.000000  -0.000000  -0.000000   0.000000   0.000000
    17  C   -0.000000   0.000000   0.000000  -0.000000  -0.000000  -0.000000
    18  C    0.000000   0.000001   0.000007  -0.000000  -0.000000  -0.000000
    19  C    0.000000  -0.000021  -0.000534  -0.000005   0.000000   0.000000
    20  C   -0.000000  -0.000001  -0.000003   0.000001   0.000000   0.000000
    21  H   -0.000000   0.000000   0.000000   0.000000  -0.000000  -0.000000
    22  H    0.000000  -0.000000  -0.000000   0.000000   0.000000   0.000000
    23  H   -0.000000   0.000000   0.000000  -0.000000  -0.000000  -0.000000
    24  H   -0.000000   0.000074   0.001022   0.000029  -0.000001  -0.000000
    25  H    0.000000   0.000000   0.000002  -0.000002  -0.000000   0.000000
    26  N   -0.000000   0.000000  -0.000000  -0.000000   0.000000   0.000000
    27  O    0.000000  -0.000022  -0.000018   0.000001   0.000000  -0.000000
    28  O    0.000000  -0.000000  -0.000000   0.000000   0.000000  -0.000000
               7          8          9         10         11         12
     1  C    0.381298  -0.027367   0.001935   0.001946  -0.027585  -0.000004
     2  C   -0.027593   0.381621  -0.022907  -0.000079   0.002327   0.001542
     3  C    0.002206  -0.025809   0.365495   0.002560   0.000189  -0.044331
     4  C    0.000213   0.001571  -0.021541  -0.020083   0.001578   0.243645
     5  C    0.002178   0.000196   0.002451   0.368963  -0.027450  -0.044675
     6  C   -0.028192   0.002286  -0.000056  -0.024036   0.382610   0.001532
     7  H    0.444836  -0.001139  -0.000072  -0.000071  -0.001194   0.000002
     8  H   -0.001139   0.434517  -0.001059   0.000007  -0.000090  -0.000048
     9  H   -0.000072  -0.001059   0.388398  -0.000075   0.000007  -0.005275
    10  H   -0.000071   0.000007  -0.000075   0.393344  -0.001119  -0.005360
    11  H   -0.001194  -0.000090   0.000007  -0.001119   0.446957  -0.000049
    12  N    0.000002  -0.000048  -0.005275  -0.005360  -0.000049   5.736283
    13  O    0.000000   0.000000   0.000042   0.008936  -0.000001   0.315445
    14  O    0.000000  -0.000001   0.008527   0.000047   0.000000   0.314018
    15  C   -0.000000   0.000000   0.000000  -0.000000  -0.000000  -0.000000
    16  C    0.000000  -0.000000   0.000000   0.000000  -0.000000  -0.000000
    17  C    0.000000  -0.000000  -0.000000   0.000000   0.000000   0.000000
    18  C   -0.000000  -0.000000   0.000004  -0.000000   0.000000  -0.000000
    19  C    0.000000  -0.000000   0.000181   0.000000   0.000000   0.000000
    20  C   -0.000000   0.000000  -0.000000   0.000000  -0.000000   0.000001
    21  H   -0.000000  -0.000000   0.000000  -0.000000   0.000000  -0.000000
    22  H    0.000000   0.000000  -0.000000   0.000000  -0.000000  -0.000000
    23  H   -0.000000  -0.000000  -0.000000  -0.000000  -0.000000   0.000000
    24  H   -0.000000   0.000010   0.001546  -0.000000  -0.000000   0.000002
    25  H   -0.000000  -0.000000  -0.000003  -0.000000   0.000000   0.000002
    26  N    0.000000  -0.000000  -0.000002   0.000000  -0.000000   0.000000
    27  O   -0.000000   0.000080   0.000193   0.000000  -0.000000  -0.000000
    28  O    0.000000   0.000000   0.000000   0.000000  -0.000000  -0.000000
              13         14         15         16         17         18
     1  C   -0.000003  -0.000005  -0.000000   0.000000  -0.000000   0.000000
     2  C   -0.000028   0.000796   0.000000  -0.000000   0.000000   0.000001
     3  C    0.003703   0.004295   0.000000  -0.000000   0.000000   0.000007
     4  C   -0.087744  -0.088109   0.000000  -0.000000  -0.000000  -0.000000
     5  C    0.003919   0.003667  -0.000000   0.000000  -0.000000  -0.000000
     6  C    0.000766  -0.000026  -0.000000   0.000000  -0.000000  -0.000000
     7  H    0.000000   0.000000  -0.000000   0.000000   0.000000  -0.000000
     8  H    0.000000  -0.000001   0.000000  -0.000000  -0.000000  -0.000000
     9  H    0.000042   0.008527   0.000000   0.000000  -0.000000   0.000004
    10  H    0.008936   0.000047  -0.000000   0.000000   0.000000  -0.000000
    11  H   -0.000001   0.000000  -0.000000  -0.000000   0.000000   0.000000
    12  N    0.315445   0.314018  -0.000000  -0.000000   0.000000  -0.000000
    13  O    8.301511  -0.087569  -0.000000  -0.000000  -0.000000   0.000000
    14  O   -0.087569   8.309977   0.000000   0.000000   0.000000   0.000002
    15  C   -0.000000   0.000000   4.878344   0.541030  -0.045273  -0.029429
    16  C   -0.000000   0.000000   0.541030   4.932603   0.523249  -0.039705
    17  C   -0.000000   0.000000  -0.045273   0.523249   4.919647   0.547107
    18  C    0.000000   0.000002  -0.029429  -0.039705   0.547107   4.827475
    19  C    0.000000   0.000042  -0.044976  -0.030596  -0.052202   0.544511
    20  C    0.000000  -0.000042   0.540505  -0.042835  -0.031012  -0.038035
    21  H    0.000000  -0.000000   0.381194  -0.028165   0.002165   0.000223
    22  H   -0.000000  -0.000000  -0.027588   0.382543  -0.027399   0.001570
    23  H   -0.000000  -0.000000   0.001940  -0.023990   0.368824  -0.019968
    24  H   -0.000000   0.000041   0.001987  -0.000059   0.002591  -0.021274
    25  H   -0.000000   0.000133  -0.027242   0.002292   0.000208   0.001582
    26  N   -0.000000  -0.000000  -0.000008   0.001546  -0.044779   0.244250
    27  O   -0.000000  -0.000000  -0.000007  -0.000024   0.003652  -0.088570
    28  O   -0.000000  -0.000000  -0.000003   0.000760   0.003834  -0.087566
              19         20         21         22         23         24
     1  C    0.000000  -0.000000  -0.000000   0.000000  -0.000000  -0.000000
     2  C   -0.000021  -0.000001   0.000000  -0.000000   0.000000   0.000074
     3  C   -0.000534  -0.000003   0.000000  -0.000000   0.000000   0.001022
     4  C   -0.000005   0.000001   0.000000   0.000000  -0.000000   0.000029
     5  C    0.000000   0.000000  -0.000000   0.000000  -0.000000  -0.000001
     6  C    0.000000   0.000000  -0.000000   0.000000  -0.000000  -0.000000
     7  H    0.000000  -0.000000  -0.000000   0.000000  -0.000000  -0.000000
     8  H   -0.000000   0.000000  -0.000000   0.000000  -0.000000   0.000010
     9  H    0.000181  -0.000000   0.000000  -0.000000  -0.000000   0.001546
    10  H    0.000000   0.000000  -0.000000   0.000000  -0.000000  -0.000000
    11  H    0.000000  -0.000000   0.000000  -0.000000  -0.000000  -0.000000
    12  N    0.000000   0.000001  -0.000000  -0.000000   0.000000   0.000002
    13  O    0.000000   0.000000   0.000000  -0.000000  -0.000000  -0.000000
    14  O    0.000042  -0.000042  -0.000000  -0.000000  -0.000000   0.000041
    15  C   -0.044976   0.540505   0.381194  -0.027588   0.001940   0.001987
    16  C   -0.030596  -0.042835  -0.028165   0.382543  -0.023990  -0.000059
    17  C   -0.052202  -0.031012   0.002165  -0.027399   0.368824   0.002591
    18  C    0.544511  -0.038035   0.000223   0.001570  -0.019968  -0.021274
    19  C    4.922742   0.524354   0.002176   0.000200   0.002538   0.365163
    20  C    0.524354   4.932444  -0.027499   0.002324  -0.000073  -0.023920
    21  H    0.002176  -0.027499   0.445146  -0.001188  -0.000071  -0.000073
    22  H    0.000200   0.002324  -0.001188   0.447261  -0.001114   0.000007
    23  H    0.002538  -0.000073  -0.000071  -0.001114   0.393425  -0.000077
    24  H    0.365163  -0.023920  -0.000073   0.000007  -0.000077   0.396970
    25  H   -0.026117   0.381352  -0.001152  -0.000092   0.000007  -0.000987
    26  N   -0.044353   0.001558   0.000002  -0.000049  -0.005374  -0.005386
    27  O    0.004923   0.000824  -0.000000   0.000000   0.000047   0.007697
    28  O    0.003706  -0.000027   0.000000  -0.000001   0.008955   0.000031
              25         26         27         28
     1  C    0.000000  -0.000000   0.000000   0.000000
     2  C    0.000000   0.000000  -0.000022  -0.000000
     3  C    0.000002  -0.000000  -0.000018  -0.000000
     4  C   -0.000002  -0.000000   0.000001   0.000000
     5  C   -0.000000   0.000000   0.000000   0.000000
     6  C    0.000000   0.000000  -0.000000  -0.000000
     7  H   -0.000000   0.000000  -0.000000   0.000000
     8  H   -0.000000  -0.000000   0.000080   0.000000
     9  H   -0.000003  -0.000002   0.000193   0.000000
    10  H   -0.000000   0.000000   0.000000   0.000000
    11  H    0.000000  -0.000000  -0.000000  -0.000000
    12  N    0.000002   0.000000  -0.000000  -0.000000
    13  O   -0.000000  -0.000000  -0.000000  -0.000000
    14  O    0.000133  -0.000000  -0.000000  -0.000000
    15  C   -0.027242  -0.000008  -0.000007  -0.000003
    16  C    0.002292   0.001546  -0.000024   0.000760
    17  C    0.000208  -0.044779   0.003652   0.003834
    18  C    0.001582   0.244250  -0.088570  -0.087566
    19  C   -0.026117  -0.044353   0.004923   0.003706
    20  C    0.381352   0.001558   0.000824  -0.000027
    21  H   -0.001152   0.000002  -0.000000   0.000000
    22  H   -0.000092  -0.000049   0.000000  -0.000001
    23  H    0.000007  -0.005374   0.000047   0.008955
    24  H   -0.000987  -0.005386   0.007697   0.000031
    25  H    0.438237  -0.000049  -0.000000   0.000000
    26  N   -0.000049   5.731850   0.316100   0.316449
    27  O   -0.000000   0.316100   8.312225  -0.087554
    28  O    0.000000   0.316449  -0.087554   8.299639
 Mulliken charges:
               1
     1  C   -0.170975
     2  C   -0.221479
     3  C   -0.182305
     4  C    0.159066
     5  C   -0.171423
     6  C   -0.218234
     7  H    0.227526
     8  H    0.235228
     9  H    0.282211
    10  H    0.275021
    11  H    0.223819
    12  N    0.487269
    13  O   -0.458976
    14  O   -0.465793
    15  C   -0.170475
    16  C   -0.218648
    17  C   -0.170611
    18  C    0.157817
    19  C   -0.171732
    20  C   -0.219916
    21  H    0.227241
    22  H    0.223526
    23  H    0.274931
    24  H    0.274607
    25  H    0.231830
    26  N    0.488245
    27  O   -0.469547
    28  O   -0.458222
 Sum of Mulliken charges =  -0.00000
 Mulliken charges with hydrogens summed into heavy atoms:
               1
     1  C    0.056551
     2  C    0.013749
     3  C    0.099906
     4  C    0.159066
     5  C    0.103598
     6  C    0.005586
    12  N    0.487269
    13  O   -0.458976
    14  O   -0.465793
    15  C    0.056765
    16  C    0.004878
    17  C    0.104320
    18  C    0.157817
    19  C    0.102875
    20  C    0.011915
    26  N    0.488245
    27  O   -0.469547
    28  O   -0.458222
 Electronic spatial extent (au):  <R**2>=           7253.2712
 Charge=             -0.0000 electrons
 Dipole moment (field-independent basis, Debye):
    X=             -0.5382    Y=             -0.1721    Z=              4.5036  Tot=              4.5389
 Quadrupole moment (field-independent basis, Debye-Ang):
   XX=            -87.4193   YY=           -109.9296   ZZ=           -107.0966
   XY=            -29.3438   XZ=             -1.7673   YZ=             -1.0492
 Traceless Quadrupole moment (field-independent basis, Debye-Ang):
   XX=             14.0625   YY=             -8.4477   ZZ=             -5.6148
   XY=            -29.3438   XZ=             -1.7673   YZ=             -1.0492
 Octapole moment (field-independent basis, Debye-Ang**2):
  XXX=            -10.1272  YYY=              0.2201  ZZZ=            -20.5899  XYY=              0.4218
  XXY=            -13.7786  XXZ=             65.0095  XZZ=             -3.6136  YZZ=              2.3332
  YYZ=             38.2645  XYZ=             -0.4280
 Hexadecapole moment (field-independent basis, Debye-Ang**3):
 XXXX=          -6721.0137 YYYY=          -1660.7437 ZZZZ=           -480.5650 XXXY=           -366.0800
 XXXZ=            -65.5113 YYYX=           -146.0159 YYYZ=             -3.0941 ZZZX=            -10.0590
 ZZZY=              1.2637 XXYY=          -1622.3952 XXZZ=          -1345.4573 YYZZ=           -353.9610
 XXYZ=             16.5978 YYXZ=              1.7209 ZZXY=             -3.7132
 N-N= 1.141396762995D+03 E-N=-4.315783034724D+03  KE= 8.656966793529D+02
 Leave Link  601 at Thu May  6 12:47:27 2021, MaxMem=   524288000 cpu:               0.5 elap:               0.5
 (Enter /opt/gaussian/g16_legacy/l9999.exe)
 1\1\GINC-TRUENO92\SP\RMP2-FC\6-31G(d)\C12H10N2O4\JRAMOS\06-May-2021\0\
 \#p 6-31g* mp2\\Input file generated by CHIRIPA (05-May-2021 14:57:21)
 \\0,1\C,0,1.914143,0.,0.\C,0,1.214143,1.211,0.\C,0,-0.183857,1.223,0.\
 C,0,-0.852857,0.,0.\C,0,-0.183857,-1.223,0.\C,0,1.214143,-1.211,0.\H,0
 ,3.000143,0.,0.\H,0,1.755143,2.153,0.\H,0,-0.750857,2.146,0.\H,0,-0.75
 0857,-2.146,0.\H,0,1.755143,-2.153,0.\N,0,-2.332857,0.,0.\O,0,-2.89885
 7,-1.091,0.\O,0,-2.898857,1.091,0.\C,0,-3.169649,5.32944,-4.14808\C,0,
 -2.831002,6.683355,-4.054515\C,0,-1.945518,7.127216,-3.067878\C,0,-1.4
 14985,6.18565,-2.187379\C,0,-1.732931,4.830059,-2.254989\C,0,-2.620501
 ,4.408736,-3.249602\H,0,-3.858325,4.993392,-4.917621\H,0,-3.255942,7.4
 00628,-4.750927\H,0,-1.66618,8.169501,-2.972845\H,0,-1.293154,4.138675
 ,-1.546467\H,0,-2.8817,3.356653,-3.319897\N,0,-0.476459,6.643616,-1.13
 8649\O,0,-0.022715,5.794146,-0.375004\O,0,-0.212357,7.843368,-1.100157
 \\Version=EM64L-G16RevA.03\State=1-A\HF=-868.3394045\MP2=-870.9385359\
 RMSD=3.332e-09\PG=C01 [X(C12H10N2O4)]\\@


 WE MIGHT AS WELL ATTEMPT TO INTRODUCE A NEW PLANET 
 INTO THE SOLAR SYSTEM, OR TO ANNIHILATE ONE ALREADYIN EXISTENCE, 
 AS TO CREATE OR DESTROY A PARTICLE OF HYDROGEN.
 ALL THE CHANGES WE CAN PRODUCE CONSIST IN SEPARATING PARTICLES
 THAT ARE IN A STATE OF ... COMBINATION, AND JOINING 
 THOSE THAT WERE PREVIOUSLY AT A DISTANCE.

                                    -- JOHN DALTON, 1810
 Job cpu time:       0 days  0 hours  4 minutes  7.6 seconds.
 Elapsed time:       0 days  0 hours  2 minutes  5.3 seconds.
 File lengths (MBytes):  RWF=     50 Int=      0 D2E=      0 Chk=      7 Scr=      1
 Normal termination of Gaussian 16 at Thu May  6 12:47:28 2021.
