 Entering Gaussian System, Link 0=/opt/gaussian/g16_legacy/g16
 Input=gaussian_04627_1_2.com
 Output=gaussian_04627_1_2.log
 Initial command:
 /opt/gaussian/g16_legacy/l1.exe "/scratch-local/jramos/2590615/Gau-3624.inp" -scrdir="/scratch-local/jramos/2590615/"
 Entering Link 1 = /opt/gaussian/g16_legacy/l1.exe PID=      3625.
  
 Copyright (c) 1988,1990,1992,1993,1995,1998,2003,2009,2016,
            Gaussian, Inc.  All Rights Reserved.
  
 This is part of the Gaussian(R) 16 program.  It is based on
 the Gaussian(R) 09 system (copyright 2009, Gaussian, Inc.),
 the Gaussian(R) 03 system (copyright 2003, Gaussian, Inc.),
 the Gaussian(R) 98 system (copyright 1998, Gaussian, Inc.),
 the Gaussian(R) 94 system (copyright 1995, Gaussian, Inc.),
 the Gaussian 92(TM) system (copyright 1992, Gaussian, Inc.),
 the Gaussian 90(TM) system (copyright 1990, Gaussian, Inc.),
 the Gaussian 88(TM) system (copyright 1988, Gaussian, Inc.),
 the Gaussian 86(TM) system (copyright 1986, Carnegie Mellon
 University), and the Gaussian 82(TM) system (copyright 1983,
 Carnegie Mellon University). Gaussian is a federally registered
 trademark of Gaussian, Inc.
  
 This software contains proprietary and confidential information,
 including trade secrets, belonging to Gaussian, Inc.
  
 This software is provided under written license and may be
 used, copied, transmitted, or stored only in accord with that
 written license.
  
 The following legend is applicable only to US Government
 contracts under FAR:
  
                    RESTRICTED RIGHTS LEGEND
  
 Use, reproduction and disclosure by the US Government is
 subject to restrictions as set forth in subparagraphs (a)
 and (c) of the Commercial Computer Software - Restricted
 Rights clause in FAR 52.227-19.
  
 Gaussian, Inc.
 340 Quinnipiac St., Bldg. 40, Wallingford CT 06492
  
  
 ---------------------------------------------------------------
 Warning -- This program may not be used in any manner that
 competes with the business of Gaussian, Inc. or will provide
 assistance to any competitor of Gaussian, Inc.  The licensee
 of this program is prohibited from giving any competitor of
 Gaussian, Inc. access to this program.  By using this program,
 the user acknowledges that Gaussian, Inc. is engaged in the
 business of creating and licensing software in the field of
 computational chemistry and represents and warrants to the
 licensee that it is not a competitor of Gaussian, Inc. and that
 it will not use this program in any manner prohibited above.
 ---------------------------------------------------------------
  

 Cite this work as:
 Gaussian 16, Revision A.03,
 M. J. Frisch, G. W. Trucks, H. B. Schlegel, G. E. Scuseria, 
 M. A. Robb, J. R. Cheeseman, G. Scalmani, V. Barone, 
 G. A. Petersson, H. Nakatsuji, X. Li, M. Caricato, A. V. Marenich, 
 J. Bloino, B. G. Janesko, R. Gomperts, B. Mennucci, H. P. Hratchian, 
 J. V. Ortiz, A. F. Izmaylov, J. L. Sonnenberg, D. Williams-Young, 
 F. Ding, F. Lipparini, F. Egidi, J. Goings, B. Peng, A. Petrone, 
 T. Henderson, D. Ranasinghe, V. G. Zakrzewski, J. Gao, N. Rega, 
 G. Zheng, W. Liang, M. Hada, M. Ehara, K. Toyota, R. Fukuda, 
 J. Hasegawa, M. Ishida, T. Nakajima, Y. Honda, O. Kitao, H. Nakai, 
 T. Vreven, K. Throssell, J. A. Montgomery, Jr., J. E. Peralta, 
 F. Ogliaro, M. J. Bearpark, J. J. Heyd, E. N. Brothers, K. N. Kudin, 
 V. N. Staroverov, T. A. Keith, R. Kobayashi, J. Normand, 
 K. Raghavachari, A. P. Rendell, J. C. Burant, S. S. Iyengar, 
 J. Tomasi, M. Cossi, J. M. Millam, M. Klene, C. Adamo, R. Cammi, 
 J. W. Ochterski, R. L. Martin, K. Morokuma, O. Farkas, 
 J. B. Foresman, and D. J. Fox, Gaussian, Inc., Wallingford CT, 2016.
 
 ******************************************
 Gaussian 16:  EM64L-G16RevA.03 25-Dec-2016
                 6-May-2021 
 ******************************************
 %chk=gaussian_04627_1_2.chk
 %nproc=2
 Will use up to    2 processors via shared memory.
 %mem=4000Mb
 -------------
 #p 6-31g* mp2
 -------------
 1/38=1,172=1/1;
 2/12=2,17=6,18=5,40=1/2;
 3/5=1,6=6,7=1,11=9,25=1,30=1/1,2,3;
 4//1;
 5/5=2,38=5/2;
 8/10=2/1;
 9/16=-3/6;
 6/7=2,8=2,9=2,10=2/1;
 99/5=1,9=1/99;
 Leave Link    1 at Thu May  6 01:13:07 2021, MaxMem=   524288000 cpu:               0.1 elap:               0.1
 (Enter /opt/gaussian/g16_legacy/l101.exe)
 ------------------------------------------------------
 Input file generated by CHIRIPA (05-May-2021 14:53:18)
 ------------------------------------------------------
 Symbolic Z-matrix:
 Charge =  0 Multiplicity = 1
 C                    -0.666    -0.374     0. 
 C                    -1.882     0.553     0. 
 C                    -3.207    -0.21      0. 
 H                    -0.713    -1.03     -0.88 
 H                    -0.713    -1.029     0.881 
 H                    -1.832     1.207    -0.88 
 H                    -1.832     1.207     0.88 
 H                    -3.283    -0.85      0.885 
 H                    -3.283    -0.85     -0.885 
 H                    -4.063     0.472     0. 
 C                     0.666     0.374     0. 
 C                     1.882    -0.553     0. 
 C                     3.207     0.21      0. 
 H                     0.713     1.029    -0.881 
 H                     0.713     1.03      0.88 
 H                     1.832    -1.207    -0.88 
 H                     1.832    -1.207     0.88 
 H                     3.283     0.85      0.885 
 H                     3.283     0.85     -0.885 
 H                     4.063    -0.472     0. 
 C                     3.60036  -4.85992  -1.48498 
 C                     3.12698  -3.59825  -1.85998 
 C                     4.01982  -2.57263  -2.18477 
 C                     5.38566  -2.8447   -2.12363 
 C                     5.88821  -4.09124  -1.75367 
 C                     4.97704  -5.10196  -1.43311 
 H                     2.89966  -5.65086  -1.23432 
 H                     2.05836  -3.40742  -1.90114 
 H                     3.68061  -1.58663  -2.47831 
 H                     6.95909  -4.25134  -1.72186 
 H                     5.34753  -6.08081  -1.14222 
 N                     6.34058  -1.76681  -2.46523 
 O                     7.53913  -2.03194  -2.40358 
 O                     5.8724   -0.67723  -2.78815 
 
 ITRead=  0  0  0  0  0  0  0  0  0  0  0  0  0  0  0  0  0  0  0  0
 ITRead=  0  0  0  0  0  0  0  0  0  0  0  0  0  0
 MicOpt= -1 -1 -1 -1 -1 -1 -1 -1 -1 -1 -1 -1 -1 -1 -1 -1 -1 -1 -1 -1
 MicOpt= -1 -1 -1 -1 -1 -1 -1 -1 -1 -1 -1 -1 -1 -1
 NAtoms=     34 NQM=       34 NQMF=       0 NMMI=      0 NMMIF=      0
                NMic=       0 NMicF=      0.
                    Isotopes and Nuclear Properties:
 (Nuclear quadrupole moments (NQMom) in fm**2, nuclear magnetic moments (NMagM)
  in nuclear magnetons)

  Atom         1           2           3           4           5           6           7           8           9          10
 IAtWgt=          12          12          12           1           1           1           1           1           1           1
 AtmWgt=  12.0000000  12.0000000  12.0000000   1.0078250   1.0078250   1.0078250   1.0078250   1.0078250   1.0078250   1.0078250
 NucSpn=           0           0           0           1           1           1           1           1           1           1
 AtZEff=  -0.0000000  -0.0000000  -0.0000000  -0.0000000  -0.0000000  -0.0000000  -0.0000000  -0.0000000  -0.0000000  -0.0000000
 NQMom=    0.0000000   0.0000000   0.0000000   0.0000000   0.0000000   0.0000000   0.0000000   0.0000000   0.0000000   0.0000000
 NMagM=    0.0000000   0.0000000   0.0000000   2.7928460   2.7928460   2.7928460   2.7928460   2.7928460   2.7928460   2.7928460
 AtZNuc=   6.0000000   6.0000000   6.0000000   1.0000000   1.0000000   1.0000000   1.0000000   1.0000000   1.0000000   1.0000000

  Atom        11          12          13          14          15          16          17          18          19          20
 IAtWgt=          12          12          12           1           1           1           1           1           1           1
 AtmWgt=  12.0000000  12.0000000  12.0000000   1.0078250   1.0078250   1.0078250   1.0078250   1.0078250   1.0078250   1.0078250
 NucSpn=           0           0           0           1           1           1           1           1           1           1
 AtZEff=  -0.0000000  -0.0000000  -0.0000000  -0.0000000  -0.0000000  -0.0000000  -0.0000000  -0.0000000  -0.0000000  -0.0000000
 NQMom=    0.0000000   0.0000000   0.0000000   0.0000000   0.0000000   0.0000000   0.0000000   0.0000000   0.0000000   0.0000000
 NMagM=    0.0000000   0.0000000   0.0000000   2.7928460   2.7928460   2.7928460   2.7928460   2.7928460   2.7928460   2.7928460
 AtZNuc=   6.0000000   6.0000000   6.0000000   1.0000000   1.0000000   1.0000000   1.0000000   1.0000000   1.0000000   1.0000000

  Atom        21          22          23          24          25          26          27          28          29          30
 IAtWgt=          12          12          12          12          12          12           1           1           1           1
 AtmWgt=  12.0000000  12.0000000  12.0000000  12.0000000  12.0000000  12.0000000   1.0078250   1.0078250   1.0078250   1.0078250
 NucSpn=           0           0           0           0           0           0           1           1           1           1
 AtZEff=  -0.0000000  -0.0000000  -0.0000000  -0.0000000  -0.0000000  -0.0000000  -0.0000000  -0.0000000  -0.0000000  -0.0000000
 NQMom=    0.0000000   0.0000000   0.0000000   0.0000000   0.0000000   0.0000000   0.0000000   0.0000000   0.0000000   0.0000000
 NMagM=    0.0000000   0.0000000   0.0000000   0.0000000   0.0000000   0.0000000   2.7928460   2.7928460   2.7928460   2.7928460
 AtZNuc=   6.0000000   6.0000000   6.0000000   6.0000000   6.0000000   6.0000000   1.0000000   1.0000000   1.0000000   1.0000000

  Atom        31          32          33          34
 IAtWgt=           1          14          16          16
 AtmWgt=   1.0078250  14.0030740  15.9949146  15.9949146
 NucSpn=           1           2           0           0
 AtZEff=  -0.0000000  -0.0000000  -0.0000000  -0.0000000
 NQMom=    0.0000000   2.0440000   0.0000000   0.0000000
 NMagM=    2.7928460   0.4037610   0.0000000   0.0000000
 AtZNuc=   1.0000000   7.0000000   8.0000000   8.0000000
 Leave Link  101 at Thu May  6 01:13:07 2021, MaxMem=   524288000 cpu:               0.3 elap:               0.2
 (Enter /opt/gaussian/g16_legacy/l202.exe)
                          Input orientation:                          
 ---------------------------------------------------------------------
 Center     Atomic      Atomic             Coordinates (Angstroms)
 Number     Number       Type             X           Y           Z
 ---------------------------------------------------------------------
      1          6           0       -0.666000   -0.374000    0.000000
      2          6           0       -1.882000    0.553000    0.000000
      3          6           0       -3.207000   -0.210000    0.000000
      4          1           0       -0.713000   -1.030000   -0.880000
      5          1           0       -0.713000   -1.029000    0.881000
      6          1           0       -1.832000    1.207000   -0.880000
      7          1           0       -1.832000    1.207000    0.880000
      8          1           0       -3.283000   -0.850000    0.885000
      9          1           0       -3.283000   -0.850000   -0.885000
     10          1           0       -4.063000    0.472000    0.000000
     11          6           0        0.666000    0.374000    0.000000
     12          6           0        1.882000   -0.553000    0.000000
     13          6           0        3.207000    0.210000    0.000000
     14          1           0        0.713000    1.029000   -0.881000
     15          1           0        0.713000    1.030000    0.880000
     16          1           0        1.832000   -1.207000   -0.880000
     17          1           0        1.832000   -1.207000    0.880000
     18          1           0        3.283000    0.850000    0.885000
     19          1           0        3.283000    0.850000   -0.885000
     20          1           0        4.063000   -0.472000    0.000000
     21          6           0        3.600360   -4.859917   -1.484980
     22          6           0        3.126977   -3.598249   -1.859980
     23          6           0        4.019818   -2.572629   -2.184767
     24          6           0        5.385662   -2.844697   -2.123628
     25          6           0        5.888213   -4.091237   -1.753668
     26          6           0        4.977040   -5.101957   -1.433112
     27          1           0        2.899659   -5.650856   -1.234321
     28          1           0        2.058364   -3.407418   -1.901137
     29          1           0        3.680613   -1.586632   -2.478311
     30          1           0        6.959088   -4.251335   -1.721861
     31          1           0        5.347534   -6.080814   -1.142220
     32          7           0        6.340576   -1.766805   -2.465226
     33          8           0        7.539135   -2.031936   -2.403579
     34          8           0        5.872398   -0.677233   -2.788149
 ---------------------------------------------------------------------
                    Distance matrix (angstroms):
                    1          2          3          4          5
     1  C    0.000000
     2  C    1.529047   0.000000
     3  C    2.546287   1.528985   0.000000
     4  H    1.098610   2.155655   2.768905   0.000000
     5  H    1.098815   2.155330   2.768927   1.761000   0.000000
     6  H    2.152561   1.097550   2.161692   2.501266   3.058264
     7  H    2.152561   1.097550   2.161692   3.058420   2.500372
     8  H    2.803300   2.171275   1.094806   3.122903   2.576229
     9  H    2.803300   2.171275   1.094806   2.576301   3.123411
    10  H    3.500761   2.182504   1.094468   3.775302   3.775137
    11  C    1.527654   2.554280   3.916782   2.155750   2.155507
    12  C    2.554280   3.923128   5.100546   2.781358   2.781504
    13  C    3.916782   5.100546   6.427736   4.204569   4.204484
    14  H    2.155507   2.781504   4.204484   2.504587   3.061615
    15  H    2.155750   2.781358   4.204569   3.061809   2.504587
    16  H    2.776381   4.203070   5.211519   2.551148   3.099973
    17  H    2.776381   4.203070   5.211519   3.099347   2.551217
    18  H    4.228002   5.248682   6.635279   4.755801   4.415730
    19  H    4.228002   5.248682   6.635279   4.416157   4.755777
    20  H    4.730015   6.032715   7.274720   4.888347   4.888413
    21  C    6.366353   7.846089   8.376577   5.799943   6.235292
    22  C    5.314319   6.766258   7.420177   4.722466   5.372098
    23  C    5.618191   7.026679   7.910886   5.146036   5.846476
    24  C    6.872900   8.298979   9.235002   6.483318   7.036919
    25  C    7.736337   9.220656  10.043020   7.328743   7.739172
    26  C    7.500086   9.004376   9.641761   7.018784   7.370254
    27  H    6.487117   7.929416   8.271502   5.876152   6.235980
    28  H    4.498678   5.901330   6.446849   3.791477   4.591037
    29  H    5.148354   6.454666   7.448245   4.708319   5.558755
    30  H    8.725852  10.208392  11.074590   8.363412   8.718903
    31  H    8.368691   9.878174  10.437968   7.893640   8.145202
    32  N    7.557073   8.892108   9.982845   7.266963   7.841844
    33  O    8.709201  10.060660  11.161365   8.451207   8.938237
    34  O    7.114519   8.331743   9.509340   6.865344   7.546778
                    6          7          8          9         10
     6  H    0.000000
     7  H    1.760000   0.000000
     8  H    3.074390   2.517275   0.000000
     9  H    2.517275   3.074390   1.770000   0.000000
    10  H    2.508383   2.508383   1.771810   1.771810   0.000000
    11  C    2.776381   2.776381   4.228002   4.228002   4.730015
    12  C    4.203070   4.203070   5.248682   5.248682   6.032715
    13  C    5.211519   5.211519   6.635279   6.635279   7.274720
    14  H    2.551217   3.099973   4.755777   4.415730   4.888413
    15  H    3.099347   2.551148   4.416157   4.755801   4.888347
    16  H    4.387743   4.727567   5.422721   5.127446   6.192291
    17  H    4.727567   4.387743   5.127446   5.422721   6.192291
    18  H    5.422721   5.127446   6.782504   7.009654   7.408767
    19  H    5.127446   5.422721   7.009654   6.782504   7.408767
    20  H    6.192291   6.192291   7.408767   7.408767   8.180649
    21  C    8.166028   8.480044   8.311250   7.988746   9.453126
    22  C    6.974398   7.428954   7.495038   7.042106   8.468897
    23  C    7.087439   7.610661   8.106915   7.614985   8.909260
    24  C    8.370036   8.805264   9.390227   8.981020  10.236576
    25  C    9.404058   9.726727  10.078657   9.765826  11.087160
    26  C    9.299027   9.566423   9.575022   9.306333  10.716582
    27  H    8.339324   8.595879   8.109563   7.835529   9.353691
    28  H    6.121316   6.645488   6.544701   6.008585   7.492350
    29  H    6.383407   7.033600   7.768294   7.181446   8.387105
    30  H   10.381974  10.669880  11.102485  10.824499  12.114501
    31  H   10.233606  10.428198  10.293549  10.095231  11.523983
    32  N    8.840105   9.317996  10.231215   9.795451  10.923552
    33  O   10.031459  10.444653  11.372349  10.991891  12.110179
    34  O    8.157764   8.738615   9.866265   9.352707  10.382998
                   11         12         13         14         15
    11  C    0.000000
    12  C    1.529047   0.000000
    13  C    2.546287   1.528985   0.000000
    14  H    1.098815   2.155330   2.768927   0.000000
    15  H    1.098610   2.155655   2.768905   1.761000   0.000000
    16  H    2.152561   1.097550   2.161692   2.500372   3.058420
    17  H    2.152561   1.097550   2.161692   3.058264   2.501266
    18  H    2.803300   2.171275   1.094806   3.123411   2.576301
    19  H    2.803300   2.171275   1.094806   2.576229   3.122903
    20  H    3.500761   2.182504   1.094468   3.775137   3.775302
    21  C    6.181385   4.869031   5.297542   6.586424   6.972883
    22  C    5.029383   3.779290   4.238949   5.310096   5.895377
    23  C    4.970304   3.663656   3.630001   5.060295   5.771202
    24  C    6.094671   4.694392   4.311327   6.195436   6.772653
    25  C    7.091206   5.625319   5.363291   7.332203   7.742487
    26  C    7.115123   5.685604   5.779597   7.488358   7.818786
    27  H    6.543063   5.342969   5.997303   7.037527   7.340686
    28  H    4.455572   3.434112   4.244926   4.746840   5.406978
    29  H    4.367378   3.231939   3.097454   4.266106   5.189580
    30  H    7.997592   6.513011   6.078362   8.222080   8.583461
    31  H    8.055188   6.623543   6.742469   8.490971   8.725363
    32  N    6.546846   5.237324   4.450213   6.480425   7.119148
    33  O    7.668488   6.321995   5.437910   7.634376   8.170279
    34  O    5.998787   4.869547   3.957942   5.759152   6.556626
                   16         17         18         19         20
    16  H    0.000000
    17  H    1.760000   0.000000
    18  H    3.074390   2.517275   0.000000
    19  H    2.517275   3.074390   1.770000   0.000000
    20  H    2.508383   2.508383   1.771810   1.771810   0.000000
    21  C    4.103279   4.697236   6.190370   5.750117   4.655429
    22  C    2.890571   3.860379   5.229357   4.556517   3.756208
    23  C    2.890313   4.005532   4.656260   3.734526   3.031124
    24  C    4.105749   4.932783   5.208053   4.427886   3.448032
    25  C    5.053215   5.630976   6.177825   5.653100   4.416518
    26  C    5.036656   5.514749   6.608268   6.212567   4.932117
    27  H    4.584026   5.035683   6.848328   6.521511   5.449538
    28  H    2.436350   3.553562   5.233345   4.545094   4.031075
    29  H    2.473073   3.852239   4.172186   2.938352   2.744203
    30  H    6.021938   6.505743   6.806832   6.343310   5.063152
    31  H    6.015131   6.340538   7.510533   7.236342   5.866301
    32  N    4.811817   5.641912   5.236454   4.323604   3.597390
    33  O    5.964327   6.635797   6.102048   5.359694   4.504898
    34  O    4.499611   5.482772   4.746519   3.558005   3.330138
                   21         22         23         24         25
    21  C    0.000000
    22  C    1.398758   0.000000
    23  C    2.428443   1.398052   0.000000
    24  C    2.766999   2.395623   1.394019   0.000000
    25  C    2.428443   2.806914   2.446000   1.394019   0.000000
    26  C    1.398757   2.422001   2.806913   2.395622   1.398051
    27  H    1.086000   2.157850   3.410804   3.853000   3.410805
    28  H    2.158864   1.086298   2.150493   3.381874   3.893212
    29  H    3.421629   2.176109   1.083244   2.148423   3.416380
    30  H    3.421628   3.889817   3.416379   2.148422   1.083243
    31  H    2.158863   3.407225   3.893212   3.381874   2.150493
    32  N    4.247000   3.748030   2.472636   1.480000   2.472636
    33  O    4.935104   4.713382   3.567327   2.318706   2.718207
    34  O    4.935104   4.114750   2.718207   2.318707   3.567327
                   26         27         28         29         30
    26  C    0.000000
    27  H    2.157851   0.000000
    28  H    3.407225   2.487053   0.000000
    29  H    3.889817   4.321495   2.506009   0.000000
    30  H    2.176108   4.321495   4.976086   4.291999   0.000000
    31  H    1.086299   2.487054   4.306001   4.976086   2.506009
    32  N    3.748030   5.333000   4.620297   2.666090   2.666090
    33  O    4.114750   5.999040   5.673028   3.884852   2.393100
    34  O    4.713382   5.999040   4.773631   2.393100   3.884851
                   31         32         33         34
    31  H    0.000000
    32  N    4.620298   0.000000
    33  O    4.773631   1.229080   0.000000
    34  O    5.673028   1.229080   2.182001   0.000000
 Stoichiometry    C12H19NO2
 Framework group  C1[X(C12H19NO2)]
 Deg. of freedom    96
 Full point group                 C1      NOp   1
 Largest Abelian subgroup         C1      NOp   1
 Largest concise Abelian subgroup C1      NOp   1
                         Standard orientation:                         
 ---------------------------------------------------------------------
 Center     Atomic      Atomic             Coordinates (Angstroms)
 Number     Number       Type             X           Y           Z
 ---------------------------------------------------------------------
      1          6           0        4.003202    0.172737    0.098432
      2          6           0        5.429800   -0.219428   -0.287584
      3          6           0        6.323941    0.991663   -0.555100
      4          1           0        3.567062    0.781965   -0.705040
      5          1           0        4.034957    0.810840    0.992418
      6          1           0        5.395270   -0.857737   -1.179765
      7          1           0        5.862527   -0.827954    0.516815
      8          1           0        6.388134    1.627050    0.334149
      9          1           0        5.918222    1.597098   -1.372071
     10          1           0        7.339156    0.688395   -0.829378
     11          6           0        3.097250   -1.027167    0.369005
     12          6           0        1.670651   -0.635003    0.755022
     13          6           0        0.776510   -1.846093    1.022538
     14          1           0        3.065494   -1.665271   -0.524981
     15          1           0        3.533389   -1.636396    1.172477
     16          1           0        1.237924   -0.026476   -0.049378
     17          1           0        1.705181    0.003306    1.647202
     18          1           0        1.182229   -2.451529    1.839508
     19          1           0        0.712317   -2.481480    0.133289
     20          1           0       -0.238704   -1.542826    1.296815
     21          6           0       -1.855676    2.663345    0.127821
     22          6           0       -1.064394    1.671965   -0.461722
     23          6           0       -1.562646    0.377759   -0.638707
     24          6           0       -2.862356    0.108547   -0.212602
     25          6           0       -3.675282    1.074722    0.378116
     26          6           0       -3.156301    2.362090    0.545123
     27          1           0       -1.460571    3.666059    0.261432
     28          1           0       -0.053954    1.903063   -0.786760
     29          1           0       -0.971725   -0.408757   -1.092163
     30          1           0       -4.678770    0.814204    0.692057
     31          1           0       -3.773092    3.130014    1.003279
     32          7           0       -3.400805   -1.257952   -0.394687
     33          8           0       -4.549034   -1.469676   -0.010784
     34          8           0       -2.664417   -2.091415   -0.917859
 ---------------------------------------------------------------------
 Rotational constants (GHZ):           0.9551315           0.1935502           0.1688470
 Leave Link  202 at Thu May  6 01:13:07 2021, MaxMem=   524288000 cpu:               0.1 elap:               0.1
 (Enter /opt/gaussian/g16_legacy/l301.exe)
 Standard basis: 6-31G(d) (6D, 7F)
 Ernie: Thresh=  0.10000D-02 Tol=  0.10000D-05 Strict=F.
 There are   263 symmetry adapted cartesian basis functions of A   symmetry.
 There are   263 symmetry adapted basis functions of A   symmetry.
   263 basis functions,   496 primitive gaussians,   263 cartesian basis functions
    57 alpha electrons       57 beta electrons
       nuclear repulsion energy       926.8864474410 Hartrees.
 IExCor=    0 DFT=F Ex=HF Corr=None ExCW=0 ScaHFX=  1.000000
 ScaDFX=  1.000000  1.000000  1.000000  1.000000 ScalE2=  1.000000  1.000000
 IRadAn=      5 IRanWt=     -1 IRanGd=            0 ICorTp=0 IEmpDi=  4
 NAtoms=   34 NActive=   34 NUniq=   34 SFac= 1.00D+00 NAtFMM=   60 NAOKFM=F Big=F
 Integral buffers will be    131072 words long.
 Raffenetti 1 integral format.
 Two-electron integral symmetry is turned on.
 Leave Link  301 at Thu May  6 01:13:07 2021, MaxMem=   524288000 cpu:               0.2 elap:               0.2
 (Enter /opt/gaussian/g16_legacy/l302.exe)
 NPDir=0 NMtPBC=     1 NCelOv=     1 NCel=       1 NClECP=     1 NCelD=      1
         NCelK=      1 NCelE2=     1 NClLst=     1 CellRange=     0.0.
 One-electron integrals computed using PRISM.
 One-electron integral symmetry used in STVInt
 NBasis=   263 RedAO= T EigKep=  4.78D-04  NBF=   263
 NBsUse=   263 1.00D-06 EigRej= -1.00D+00 NBFU=   263
 Leave Link  302 at Thu May  6 01:13:08 2021, MaxMem=   524288000 cpu:               0.7 elap:               0.6
 (Enter /opt/gaussian/g16_legacy/l303.exe)
 DipDrv:  MaxL=1.
 Leave Link  303 at Thu May  6 01:13:08 2021, MaxMem=   524288000 cpu:               0.1 elap:               0.1
 (Enter /opt/gaussian/g16_legacy/l401.exe)
 ExpMin= 1.61D-01 ExpMax= 5.48D+03 ExpMxC= 8.25D+02 IAcc=3 IRadAn=         5 AccDes= 0.00D+00
 Harris functional with IExCor=  205 and IRadAn=       5 diagonalized for initial guess.
 HarFok:  IExCor=  205 AccDes= 0.00D+00 IRadAn=         5 IDoV= 1 UseB2=F ITyADJ=14
 ICtDFT=  3500011 ScaDFX=  1.000000  1.000000  1.000000  1.000000
 FoFCou: FMM=F IPFlag=           0 FMFlag=      100000 FMFlg1=           0
         NFxFlg=           0 DoJE=T BraDBF=F KetDBF=T FulRan=T
         wScrn=  0.000000 ICntrl=       500 IOpCl=  0 I1Cent=   200000004 NGrid=           0
         NMat0=    1 NMatS0=      1 NMatT0=    0 NMatD0=    1 NMtDS0=    0 NMtDT0=    0
 Petite list used in FoFCou.
 Harris En= -670.656151854308    
 JPrj=0 DoOrth=F DoCkMO=F.
 Leave Link  401 at Thu May  6 01:13:17 2021, MaxMem=   524288000 cpu:              16.4 elap:               8.4
 (Enter /opt/gaussian/g16_legacy/l502.exe)
 Integral symmetry usage will be decided dynamically.
 Closed shell SCF:
 Using DIIS extrapolation, IDIIS=  1040.
 NGot=   524288000 LenX=   524144919 LenY=   524075309
 Requested convergence on RMS density matrix=1.00D-08 within 128 cycles.
 Requested convergence on MAX density matrix=1.00D-06.
 Requested convergence on             energy=1.00D-06.
 No special actions if energy rises.
 Fock matrices will be formed incrementally for  20 cycles.
 Integral accuracy reduced to 1.0D-05 until final iterations.

 Cycle   1  Pass 0  IDiag  1:
 FoFJK:  IHMeth= 1 ICntrl=       0 DoSepK=F KAlg= 0 I1Cent=           0 FoldK=F
 IRaf= 760000000 NMat=       1 IRICut=       1 DoRegI=T DoRafI=F ISym2E= 0 IDoP0=0 IntGTp=1.
 FoFCou: FMM=F IPFlag=           0 FMFlag=      100000 FMFlg1=           0
         NFxFlg=           0 DoJE=F BraDBF=F KetDBF=F FulRan=T
         wScrn=  0.000000 ICntrl=         0 IOpCl=  0 I1Cent=           0 NGrid=           0
         NMat0=    1 NMatS0=      1 NMatT0=    0 NMatD0=    1 NMtDS0=    0 NMtDT0=    0
 Symmetry not used in FoFCou.
 E= -668.741770270858    
 DIIS: error= 5.97D-02 at cycle   1 NSaved=   1.
 NSaved= 1 IEnMin= 1 EnMin= -668.741770270858     IErMin= 1 ErrMin= 5.97D-02
 ErrMax= 5.97D-02  0.00D+00 EMaxC= 1.00D-01 BMatC= 1.17D+00 BMatP= 1.17D+00
 IDIUse=3 WtCom= 4.03D-01 WtEn= 5.97D-01
 Coeff-Com:  0.100D+01
 Coeff-En:   0.100D+01
 Coeff:      0.100D+01
 Gap=     0.555 Goal=   None    Shift=    0.000
 GapD=    0.555 DampG=2.000 DampE=0.500 DampFc=1.0000 IDamp=-1.
 RMSDP=4.60D-03 MaxDP=1.18D-01              OVMax= 1.51D-01

 Cycle   2  Pass 0  IDiag  1:
 RMSU=  4.47D-03    CP:  9.48D-01
 E= -669.356694605692     Delta-E=       -0.614924334834 Rises=F Damp=F
 DIIS: error= 2.86D-02 at cycle   2 NSaved=   2.
 NSaved= 2 IEnMin= 2 EnMin= -669.356694605692     IErMin= 2 ErrMin= 2.86D-02
 ErrMax= 2.86D-02  0.00D+00 EMaxC= 1.00D-01 BMatC= 2.18D-01 BMatP= 1.17D+00
 IDIUse=3 WtCom= 7.14D-01 WtEn= 2.86D-01
 Coeff-Com:  0.246D+00 0.754D+00
 Coeff-En:   0.000D+00 0.100D+01
 Coeff:      0.176D+00 0.824D+00
 Gap=     0.571 Goal=   None    Shift=    0.000
 RMSDP=1.82D-03 MaxDP=8.45D-02 DE=-6.15D-01 OVMax= 1.22D-01

 Cycle   3  Pass 0  IDiag  1:
 RMSU=  1.44D-03    CP:  9.57D-01  7.55D-01
 E= -669.505219034992     Delta-E=       -0.148524429300 Rises=F Damp=F
 DIIS: error= 1.46D-02 at cycle   3 NSaved=   3.
 NSaved= 3 IEnMin= 3 EnMin= -669.505219034992     IErMin= 3 ErrMin= 1.46D-02
 ErrMax= 1.46D-02  0.00D+00 EMaxC= 1.00D-01 BMatC= 3.68D-02 BMatP= 2.18D-01
 IDIUse=3 WtCom= 8.54D-01 WtEn= 1.46D-01
 Coeff-Com: -0.946D-02 0.271D+00 0.739D+00
 Coeff-En:   0.000D+00 0.000D+00 0.100D+01
 Coeff:     -0.808D-02 0.231D+00 0.777D+00
 Gap=     0.426 Goal=   None    Shift=    0.000
 RMSDP=6.06D-04 MaxDP=3.26D-02 DE=-1.49D-01 OVMax= 5.08D-02

 Cycle   4  Pass 0  IDiag  1:
 RMSU=  4.02D-04    CP:  9.55D-01  8.34D-01  8.03D-01
 E= -669.531119199593     Delta-E=       -0.025900164601 Rises=F Damp=F
 DIIS: error= 4.44D-03 at cycle   4 NSaved=   4.
 NSaved= 4 IEnMin= 4 EnMin= -669.531119199593     IErMin= 4 ErrMin= 4.44D-03
 ErrMax= 4.44D-03  0.00D+00 EMaxC= 1.00D-01 BMatC= 3.03D-03 BMatP= 3.68D-02
 IDIUse=3 WtCom= 9.56D-01 WtEn= 4.44D-02
 Coeff-Com: -0.133D-01 0.434D-01 0.293D+00 0.677D+00
 Coeff-En:   0.000D+00 0.000D+00 0.000D+00 0.100D+01
 Coeff:     -0.127D-01 0.415D-01 0.280D+00 0.691D+00
 Gap=     0.411 Goal=   None    Shift=    0.000
 RMSDP=1.74D-04 MaxDP=9.25D-03 DE=-2.59D-02 OVMax= 1.46D-02

 Cycle   5  Pass 0  IDiag  1:
 RMSU=  9.82D-05    CP:  9.55D-01  8.36D-01  8.77D-01  7.61D-01
 E= -669.533562275770     Delta-E=       -0.002443076177 Rises=F Damp=F
 DIIS: error= 5.52D-04 at cycle   5 NSaved=   5.
 NSaved= 5 IEnMin= 5 EnMin= -669.533562275770     IErMin= 5 ErrMin= 5.52D-04
 ErrMax= 5.52D-04  0.00D+00 EMaxC= 1.00D-01 BMatC= 6.07D-05 BMatP= 3.03D-03
 IDIUse=3 WtCom= 9.94D-01 WtEn= 5.52D-03
 Coeff-Com:  0.204D-02-0.196D-01-0.766D-01-0.317D-01 0.113D+01
 Coeff-En:   0.000D+00 0.000D+00 0.000D+00 0.000D+00 0.100D+01
 Coeff:      0.203D-02-0.195D-01-0.762D-01-0.315D-01 0.113D+01
 Gap=     0.413 Goal=   None    Shift=    0.000
 RMSDP=5.37D-05 MaxDP=1.70D-03 DE=-2.44D-03 OVMax= 4.76D-03

 Cycle   6  Pass 0  IDiag  1:
 RMSU=  2.49D-05    CP:  9.55D-01  8.38D-01  8.90D-01  8.46D-01  1.25D+00
 E= -669.533674293828     Delta-E=       -0.000112018058 Rises=F Damp=F
 DIIS: error= 2.28D-04 at cycle   6 NSaved=   6.
 NSaved= 6 IEnMin= 6 EnMin= -669.533674293828     IErMin= 6 ErrMin= 2.28D-04
 ErrMax= 2.28D-04  0.00D+00 EMaxC= 1.00D-01 BMatC= 5.95D-06 BMatP= 6.07D-05
 IDIUse=3 WtCom= 9.98D-01 WtEn= 2.28D-03
 Coeff-Com:  0.126D-02-0.663D-02-0.342D-01-0.525D-01 0.140D+00 0.952D+00
 Coeff-En:   0.000D+00 0.000D+00 0.000D+00 0.000D+00 0.000D+00 0.100D+01
 Coeff:      0.126D-02-0.661D-02-0.342D-01-0.523D-01 0.140D+00 0.952D+00
 Gap=     0.413 Goal=   None    Shift=    0.000
 RMSDP=1.77D-05 MaxDP=5.77D-04 DE=-1.12D-04 OVMax= 1.71D-03

 Cycle   7  Pass 0  IDiag  1:
 RMSU=  8.86D-06    CP:  9.55D-01  8.38D-01  8.93D-01  8.58D-01  1.38D+00
                    CP:  1.18D+00
 E= -669.533689609454     Delta-E=       -0.000015315626 Rises=F Damp=F
 DIIS: error= 1.31D-04 at cycle   7 NSaved=   7.
 NSaved= 7 IEnMin= 7 EnMin= -669.533689609454     IErMin= 7 ErrMin= 1.31D-04
 ErrMax= 1.31D-04  0.00D+00 EMaxC= 1.00D-01 BMatC= 1.17D-06 BMatP= 5.95D-06
 IDIUse=3 WtCom= 9.99D-01 WtEn= 1.31D-03
 Coeff-Com: -0.267D-03 0.253D-02 0.994D-02 0.614D-02-0.155D+00 0.588D-02
 Coeff-Com:  0.113D+01
 Coeff-En:   0.000D+00 0.000D+00 0.000D+00 0.000D+00 0.000D+00 0.000D+00
 Coeff-En:   0.100D+01
 Coeff:     -0.267D-03 0.252D-02 0.993D-02 0.614D-02-0.155D+00 0.588D-02
 Coeff:      0.113D+01
 Gap=     0.413 Goal=   None    Shift=    0.000
 RMSDP=9.06D-06 MaxDP=4.40D-04 DE=-1.53D-05 OVMax= 1.38D-03

 Initial convergence to 1.0D-05 achieved.  Increase integral accuracy.
 Cycle   8  Pass 1  IDiag  1:
 E= -669.533695404177     Delta-E=       -0.000005794722 Rises=F Damp=F
 DIIS: error= 7.54D-05 at cycle   1 NSaved=   1.
 NSaved= 1 IEnMin= 1 EnMin= -669.533695404177     IErMin= 1 ErrMin= 7.54D-05
 ErrMax= 7.54D-05  0.00D+00 EMaxC= 1.00D-01 BMatC= 4.05D-07 BMatP= 4.05D-07
 IDIUse=1 WtCom= 1.00D+00 WtEn= 0.00D+00
 Coeff-Com:  0.100D+01
 Coeff:      0.100D+01
 Gap=     0.413 Goal=   None    Shift=    0.000
 RMSDP=9.06D-06 MaxDP=4.40D-04 DE=-5.79D-06 OVMax= 5.38D-04

 Cycle   9  Pass 1  IDiag  1:
 RMSU=  1.43D-05    CP:  1.00D+00
 E= -669.533696455610     Delta-E=       -0.000001051434 Rises=F Damp=F
 DIIS: error= 4.70D-05 at cycle   2 NSaved=   2.
 NSaved= 2 IEnMin= 2 EnMin= -669.533696455610     IErMin= 2 ErrMin= 4.70D-05
 ErrMax= 4.70D-05  0.00D+00 EMaxC= 1.00D-01 BMatC= 1.16D-07 BMatP= 4.05D-07
 IDIUse=1 WtCom= 1.00D+00 WtEn= 0.00D+00
 Coeff-Com: -0.777D-02 0.101D+01
 Coeff:     -0.777D-02 0.101D+01
 Gap=     0.413 Goal=   None    Shift=    0.000
 RMSDP=2.41D-06 MaxDP=9.68D-05 DE=-1.05D-06 OVMax= 3.92D-04

 Cycle  10  Pass 1  IDiag  1:
 RMSU=  2.14D-06    CP:  1.00D+00  1.08D+00
 E= -669.533696872803     Delta-E=       -0.000000417193 Rises=F Damp=F
 DIIS: error= 3.49D-05 at cycle   3 NSaved=   3.
 NSaved= 3 IEnMin= 3 EnMin= -669.533696872803     IErMin= 3 ErrMin= 3.49D-05
 ErrMax= 3.49D-05  0.00D+00 EMaxC= 1.00D-01 BMatC= 5.28D-08 BMatP= 1.16D-07
 IDIUse=1 WtCom= 1.00D+00 WtEn= 0.00D+00
 Coeff-Com: -0.307D+00 0.105D+00 0.120D+01
 Coeff:     -0.307D+00 0.105D+00 0.120D+01
 Gap=     0.413 Goal=   None    Shift=    0.000
 RMSDP=2.34D-06 MaxDP=7.66D-05 DE=-4.17D-07 OVMax= 3.57D-04

 Cycle  11  Pass 1  IDiag  1:
 RMSU=  1.41D-06    CP:  1.00D+00  1.13D+00  1.79D+00
 E= -669.533697136330     Delta-E=       -0.000000263527 Rises=F Damp=F
 DIIS: error= 1.33D-05 at cycle   4 NSaved=   4.
 NSaved= 4 IEnMin= 4 EnMin= -669.533697136330     IErMin= 4 ErrMin= 1.33D-05
 ErrMax= 1.33D-05  0.00D+00 EMaxC= 1.00D-01 BMatC= 9.32D-09 BMatP= 5.28D-08
 IDIUse=1 WtCom= 1.00D+00 WtEn= 0.00D+00
 Coeff-Com:  0.156D-01-0.362D+00-0.770D-01 0.142D+01
 Coeff:      0.156D-01-0.362D+00-0.770D-01 0.142D+01
 Gap=     0.413 Goal=   None    Shift=    0.000
 RMSDP=1.71D-06 MaxDP=5.70D-05 DE=-2.64D-07 OVMax= 2.68D-04

 Cycle  12  Pass 1  IDiag  1:
 RMSU=  2.19D-07    CP:  1.00D+00  1.15D+00  2.50D+00  1.48D+00
 E= -669.533697198029     Delta-E=       -0.000000061699 Rises=F Damp=F
 DIIS: error= 1.37D-06 at cycle   5 NSaved=   5.
 NSaved= 5 IEnMin= 5 EnMin= -669.533697198029     IErMin= 5 ErrMin= 1.37D-06
 ErrMax= 1.37D-06  0.00D+00 EMaxC= 1.00D-01 BMatC= 5.76D-10 BMatP= 9.32D-09
 IDIUse=1 WtCom= 1.00D+00 WtEn= 0.00D+00
 Coeff-Com:  0.173D-01-0.142D+00-0.657D-01 0.541D+00 0.649D+00
 Coeff:      0.173D-01-0.142D+00-0.657D-01 0.541D+00 0.649D+00
 Gap=     0.413 Goal=   None    Shift=    0.000
 RMSDP=9.93D-08 MaxDP=3.48D-06 DE=-6.17D-08 OVMax= 1.13D-05

 Cycle  13  Pass 1  IDiag  1:
 RMSU=  7.31D-08    CP:  1.00D+00  1.14D+00  2.52D+00  1.51D+00  1.00D+00
 E= -669.533697198656     Delta-E=       -0.000000000627 Rises=F Damp=F
 DIIS: error= 9.27D-07 at cycle   6 NSaved=   6.
 NSaved= 6 IEnMin= 6 EnMin= -669.533697198656     IErMin= 6 ErrMin= 9.27D-07
 ErrMax= 9.27D-07  0.00D+00 EMaxC= 1.00D-01 BMatC= 3.97D-11 BMatP= 5.76D-10
 IDIUse=1 WtCom= 1.00D+00 WtEn= 0.00D+00
 Coeff-Com: -0.267D-02 0.571D-01 0.129D-01-0.229D+00-0.640D-01 0.123D+01
 Coeff:     -0.267D-02 0.571D-01 0.129D-01-0.229D+00-0.640D-01 0.123D+01
 Gap=     0.413 Goal=   None    Shift=    0.000
 RMSDP=5.61D-08 MaxDP=2.38D-06 DE=-6.27D-10 OVMax= 6.47D-06

 Cycle  14  Pass 1  IDiag  1:
 RMSU=  2.79D-08    CP:  1.00D+00  1.14D+00  2.54D+00  1.52D+00  1.15D+00
                    CP:  1.30D+00
 E= -669.533697198764     Delta-E=       -0.000000000108 Rises=F Damp=F
 DIIS: error= 1.55D-07 at cycle   7 NSaved=   7.
 NSaved= 7 IEnMin= 7 EnMin= -669.533697198764     IErMin= 7 ErrMin= 1.55D-07
 ErrMax= 1.55D-07  0.00D+00 EMaxC= 1.00D-01 BMatC= 7.86D-12 BMatP= 3.97D-11
 IDIUse=1 WtCom= 1.00D+00 WtEn= 0.00D+00
 Coeff-Com: -0.246D-02 0.260D-01 0.107D-01-0.104D+00-0.117D+00 0.276D+00
 Coeff-Com:  0.910D+00
 Coeff:     -0.246D-02 0.260D-01 0.107D-01-0.104D+00-0.117D+00 0.276D+00
 Coeff:      0.910D+00
 Gap=     0.413 Goal=   None    Shift=    0.000
 RMSDP=1.67D-08 MaxDP=6.33D-07 DE=-1.08D-10 OVMax= 1.41D-06

 Cycle  15  Pass 1  IDiag  1:
 RMSU=  9.47D-09    CP:  1.00D+00  1.15D+00  2.54D+00  1.53D+00  1.17D+00
                    CP:  1.43D+00  1.17D+00
 E= -669.533697198772     Delta-E=       -0.000000000008 Rises=F Damp=F
 DIIS: error= 8.23D-08 at cycle   8 NSaved=   8.
 NSaved= 8 IEnMin= 8 EnMin= -669.533697198772     IErMin= 8 ErrMin= 8.23D-08
 ErrMax= 8.23D-08  0.00D+00 EMaxC= 1.00D-01 BMatC= 8.28D-13 BMatP= 7.86D-12
 IDIUse=1 WtCom= 1.00D+00 WtEn= 0.00D+00
 Coeff-Com:  0.416D-03-0.838D-02-0.137D-02 0.326D-01-0.258D-02-0.134D+00
 Coeff-Com: -0.564D-01 0.117D+01
 Coeff:      0.416D-03-0.838D-02-0.137D-02 0.326D-01-0.258D-02-0.134D+00
 Coeff:     -0.564D-01 0.117D+01
 Gap=     0.413 Goal=   None    Shift=    0.000
 RMSDP=6.81D-09 MaxDP=3.22D-07 DE=-7.96D-12 OVMax= 7.33D-07

 SCF Done:  E(RHF) =  -669.533697199     A.U. after   15 cycles
            NFock= 15  Conv=0.68D-08     -V/T= 2.0023
 KE= 6.679747678005D+02 PE=-3.416750296676D+03 EE= 1.152355384235D+03
 Leave Link  502 at Thu May  6 01:14:16 2021, MaxMem=   524288000 cpu:             112.0 elap:              58.8
 (Enter /opt/gaussian/g16_legacy/l801.exe)
 ExpMin= 1.61D-01 ExpMax= 5.48D+03 ExpMxC= 8.25D+02 IAcc=3 IRadAn=         5 AccDes= 0.00D+00
 HarFok:  IExCor=  205 AccDes= 0.00D+00 IRadAn=         5 IDoV=-2 UseB2=F ITyADJ=14
 ICtDFT= 12500011 ScaDFX=  1.000000  1.000000  1.000000  1.000000
 Largest valence mixing into a core orbital is  1.96D-04
 Largest core mixing into a valence orbital is  3.97D-05
 Range of M.O.s used for correlation:    16   263
 NBasis=   263 NAE=    57 NBE=    57 NFC=    15 NFV=     0
 NROrb=    248 NOA=    42 NOB=    42 NVA=   206 NVB=   206
 Leave Link  801 at Thu May  6 01:14:17 2021, MaxMem=   524288000 cpu:               2.1 elap:               1.3
 (Enter /opt/gaussian/g16_legacy/l906.exe)
 FulOut=F Deriv=F AODrv=F NAtomX=    34
   MMem=         113  MDisk=          42 MDiskD=          42
  W3Min=     2275476 MinDsk=     2420380 NBas6D=         263
 NBas2D=       35121    NTT=       34716    LW2=     2000000
    MDV=   523932879 MDiskM=       27562 NBas2p=       24997
 Fully direct method using O(OVN) memory.
 IMap=   1   2   3   4   5   6   7   8   9  10  11  12  13  14  15  16  17  18  19  20
 IMap=  21  22  23  24  25  26  27  28  29  30  31  32  33  34  35  36  37  38  39  40
 IMap=  41  42
 JobTyp=1 Pass  1:  I=   1 to  42 NPSUse=  2 ParTrn=T ParDer=T DoDerP=F.
 Spin components of T(2) and E(2):
     alpha-alpha T2 =       0.9522711599D-01 E2=     -0.2725419617D+00
     alpha-beta  T2 =       0.5266839543D+00 E2=     -0.1549122263D+01
     beta-beta   T2 =       0.9522711599D-01 E2=     -0.2725419617D+00
 The integrals were generated   1 times.
 ANorm=    0.1310396194D+01
 E2 =    -0.2094206186D+01 EUMP2 =    -0.67162790338487D+03
 Leave Link  906 at Thu May  6 01:15:15 2021, MaxMem=   524288000 cpu:             114.2 elap:              57.8
 (Enter /opt/gaussian/g16_legacy/l601.exe)
 Copying SCF densities to generalized density rwf, IOpCl= 0 IROHF=0.

 **********************************************************************

            Population analysis using the SCF density.

 **********************************************************************

 Orbital symmetries:
       Occupied  (A) (A) (A) (A) (A) (A) (A) (A) (A) (A) (A) (A)
                 (A) (A) (A) (A) (A) (A) (A) (A) (A) (A) (A) (A)
                 (A) (A) (A) (A) (A) (A) (A) (A) (A) (A) (A) (A)
                 (A) (A) (A) (A) (A) (A) (A) (A) (A) (A) (A) (A)
                 (A) (A) (A) (A) (A) (A) (A) (A) (A)
       Virtual   (A) (A) (A) (A) (A) (A) (A) (A) (A) (A) (A) (A)
                 (A) (A) (A) (A) (A) (A) (A) (A) (A) (A) (A) (A)
                 (A) (A) (A) (A) (A) (A) (A) (A) (A) (A) (A) (A)
                 (A) (A) (A) (A) (A) (A) (A) (A) (A) (A) (A) (A)
                 (A) (A) (A) (A) (A) (A) (A) (A) (A) (A) (A) (A)
                 (A) (A) (A) (A) (A) (A) (A) (A) (A) (A) (A) (A)
                 (A) (A) (A) (A) (A) (A) (A) (A) (A) (A) (A) (A)
                 (A) (A) (A) (A) (A) (A) (A) (A) (A) (A) (A) (A)
                 (A) (A) (A) (A) (A) (A) (A) (A) (A) (A) (A) (A)
                 (A) (A) (A) (A) (A) (A) (A) (A) (A) (A) (A) (A)
                 (A) (A) (A) (A) (A) (A) (A) (A) (A) (A) (A) (A)
                 (A) (A) (A) (A) (A) (A) (A) (A) (A) (A) (A) (A)
                 (A) (A) (A) (A) (A) (A) (A) (A) (A) (A) (A) (A)
                 (A) (A) (A) (A) (A) (A) (A) (A) (A) (A) (A) (A)
                 (A) (A) (A) (A) (A) (A) (A) (A) (A) (A) (A) (A)
                 (A) (A) (A) (A) (A) (A) (A) (A) (A) (A) (A) (A)
                 (A) (A) (A) (A) (A) (A) (A) (A) (A) (A) (A) (A)
                 (A) (A)
 The electronic state is 1-A.
 Alpha  occ. eigenvalues --  -20.60777 -20.60763 -15.85817 -11.31168 -11.27742
 Alpha  occ. eigenvalues --  -11.27709 -11.27480 -11.26751 -11.26720 -11.22016
 Alpha  occ. eigenvalues --  -11.21941 -11.21828 -11.21706 -11.21402 -11.21073
 Alpha  occ. eigenvalues --   -1.59842  -1.39396  -1.19354  -1.08812  -1.08743
 Alpha  occ. eigenvalues --   -1.04782  -1.03835  -0.96272  -0.95573  -0.87274
 Alpha  occ. eigenvalues --   -0.86142  -0.82441  -0.79920  -0.78658  -0.77457
 Alpha  occ. eigenvalues --   -0.72039  -0.71170  -0.70474  -0.65490  -0.64991
 Alpha  occ. eigenvalues --   -0.64763  -0.62304  -0.61096  -0.59619  -0.57896
 Alpha  occ. eigenvalues --   -0.55575  -0.55205  -0.53194  -0.52900  -0.52839
 Alpha  occ. eigenvalues --   -0.52551  -0.50192  -0.48794  -0.48794  -0.48223
 Alpha  occ. eigenvalues --   -0.46973  -0.46180  -0.46092  -0.44809  -0.44078
 Alpha  occ. eigenvalues --   -0.37325  -0.36282
 Alpha virt. eigenvalues --    0.05053   0.11248   0.16476   0.20235   0.22842
 Alpha virt. eigenvalues --    0.23994   0.25166   0.26541   0.27338   0.28362
 Alpha virt. eigenvalues --    0.28856   0.30770   0.31337   0.31453   0.32405
 Alpha virt. eigenvalues --    0.32850   0.33654   0.34022   0.34594   0.35146
 Alpha virt. eigenvalues --    0.35563   0.36060   0.36358   0.38812   0.39103
 Alpha virt. eigenvalues --    0.40999   0.43782   0.44775   0.45038   0.45430
 Alpha virt. eigenvalues --    0.47276   0.48519   0.49395   0.51288   0.58151
 Alpha virt. eigenvalues --    0.67054   0.68017   0.68447   0.69728   0.70210
 Alpha virt. eigenvalues --    0.70637   0.73108   0.75055   0.76107   0.77338
 Alpha virt. eigenvalues --    0.77723   0.78528   0.78849   0.79620   0.80466
 Alpha virt. eigenvalues --    0.80799   0.82093   0.82919   0.85588   0.85924
 Alpha virt. eigenvalues --    0.86357   0.87372   0.89883   0.92749   0.93850
 Alpha virt. eigenvalues --    0.95739   0.97520   0.98185   0.98574   1.01574
 Alpha virt. eigenvalues --    1.01928   1.03094   1.04678   1.05623   1.06877
 Alpha virt. eigenvalues --    1.07798   1.08111   1.08891   1.10729   1.11132
 Alpha virt. eigenvalues --    1.12374   1.14844   1.15552   1.16460   1.16876
 Alpha virt. eigenvalues --    1.17729   1.18347   1.19114   1.19456   1.20571
 Alpha virt. eigenvalues --    1.20917   1.21105   1.21192   1.22433   1.22608
 Alpha virt. eigenvalues --    1.23004   1.24096   1.25152   1.26394   1.27349
 Alpha virt. eigenvalues --    1.27919   1.29382   1.31053   1.31722   1.34732
 Alpha virt. eigenvalues --    1.35069   1.40523   1.41620   1.46755   1.47792
 Alpha virt. eigenvalues --    1.52706   1.53662   1.55721   1.61073   1.65433
 Alpha virt. eigenvalues --    1.65911   1.66830   1.67360   1.67478   1.68116
 Alpha virt. eigenvalues --    1.71281   1.72452   1.72654   1.73349   1.73998
 Alpha virt. eigenvalues --    1.75759   1.80371   1.81450   1.92708   1.97222
 Alpha virt. eigenvalues --    1.99418   2.00134   2.04578   2.05067   2.05156
 Alpha virt. eigenvalues --    2.10066   2.12410   2.13239   2.13414   2.15874
 Alpha virt. eigenvalues --    2.17628   2.21506   2.21784   2.22586   2.24935
 Alpha virt. eigenvalues --    2.25388   2.25550   2.27589   2.28295   2.32562
 Alpha virt. eigenvalues --    2.33180   2.34096   2.35710   2.37136   2.38189
 Alpha virt. eigenvalues --    2.39402   2.42796   2.43223   2.43734   2.44861
 Alpha virt. eigenvalues --    2.45783   2.46960   2.56485   2.56787   2.58172
 Alpha virt. eigenvalues --    2.58699   2.59420   2.60078   2.66779   2.67463
 Alpha virt. eigenvalues --    2.67922   2.71224   2.76864   2.77324   2.79698
 Alpha virt. eigenvalues --    2.82282   2.83594   2.91344   2.91971   2.92111
 Alpha virt. eigenvalues --    2.92518   2.95232   2.98361   3.00083   3.04760
 Alpha virt. eigenvalues --    3.05010   3.07139   3.10586   3.13704   3.18435
 Alpha virt. eigenvalues --    3.23701   3.24723   3.27770   3.43152   3.53028
 Alpha virt. eigenvalues --    3.77034   4.13287   4.28717   4.38038   4.48229
 Alpha virt. eigenvalues --    4.51343   4.53384   4.55641   4.63053   4.71986
 Alpha virt. eigenvalues --    4.72304   4.76890   4.80053   4.88514   4.99866
 Alpha virt. eigenvalues --    5.09130
          Condensed to atoms (all electrons):
               1          2          3          4          5          6
     1  C    5.085466   0.352751  -0.057407   0.394780   0.395817  -0.043700
     2  C    0.352751   5.059480   0.340347  -0.041876  -0.041657   0.399416
     3  C   -0.057407   0.340347   5.097706  -0.002869  -0.002862  -0.039828
     4  H    0.394780  -0.041876  -0.002869   0.575492  -0.032130  -0.002998
     5  H    0.395817  -0.041657  -0.002862  -0.032130   0.567886   0.004563
     6  H   -0.043700   0.399416  -0.039828  -0.002998   0.004563   0.562322
     7  H   -0.043651   0.399613  -0.039758   0.004601  -0.002989  -0.031369
     8  H   -0.003820  -0.038935   0.391182   0.000161   0.002639   0.004212
     9  H   -0.003867  -0.039005   0.391052   0.002657   0.000161  -0.002892
    10  H    0.004395  -0.035699   0.394413  -0.000060  -0.000060  -0.002497
    11  C    0.355027  -0.051898   0.004063  -0.042194  -0.041609  -0.003157
    12  C   -0.052244   0.003955  -0.000086  -0.003250  -0.003240  -0.000063
    13  C    0.004042  -0.000082   0.000001  -0.000056  -0.000054  -0.000001
    14  H   -0.041957  -0.003215  -0.000052  -0.002814   0.004469   0.002382
    15  H   -0.041501  -0.003199  -0.000052   0.004486  -0.002804   0.000234
    16  H   -0.003185  -0.000064  -0.000001   0.002393   0.000237   0.000017
    17  H   -0.003260  -0.000067  -0.000000   0.000249   0.002453  -0.000003
    18  H   -0.000062  -0.000001  -0.000000  -0.000001   0.000013   0.000000
    19  H   -0.000068  -0.000001  -0.000000   0.000014  -0.000001  -0.000002
    20  H   -0.000089   0.000001  -0.000000   0.000001   0.000001   0.000000
    21  C   -0.000000   0.000000   0.000000  -0.000000  -0.000000  -0.000000
    22  C   -0.000012   0.000000   0.000000  -0.000020  -0.000000  -0.000000
    23  C    0.000000  -0.000000   0.000000  -0.000003   0.000000   0.000000
    24  C   -0.000000  -0.000000   0.000000   0.000000   0.000000   0.000000
    25  C   -0.000000   0.000000  -0.000000  -0.000000   0.000000   0.000000
    26  C    0.000000  -0.000000   0.000000   0.000000  -0.000000  -0.000000
    27  H   -0.000000   0.000000  -0.000000  -0.000000   0.000000   0.000000
    28  H    0.000032  -0.000000   0.000000   0.000119  -0.000001   0.000000
    29  H   -0.000001   0.000000  -0.000000  -0.000003   0.000000   0.000000
    30  H   -0.000000   0.000000  -0.000000  -0.000000   0.000000   0.000000
    31  H    0.000000  -0.000000  -0.000000   0.000000  -0.000000   0.000000
    32  N    0.000000  -0.000000   0.000000  -0.000000  -0.000000  -0.000000
    33  O   -0.000000   0.000000   0.000000   0.000000   0.000000   0.000000
    34  O    0.000000  -0.000000  -0.000000   0.000000  -0.000000   0.000000
               7          8          9         10         11         12
     1  C   -0.043651  -0.003820  -0.003867   0.004395   0.355027  -0.052244
     2  C    0.399613  -0.038935  -0.039005  -0.035699  -0.051898   0.003955
     3  C   -0.039758   0.391182   0.391052   0.394413   0.004063  -0.000086
     4  H    0.004601   0.000161   0.002657  -0.000060  -0.042194  -0.003250
     5  H   -0.002989   0.002639   0.000161  -0.000060  -0.041609  -0.003240
     6  H   -0.031369   0.004212  -0.002892  -0.002497  -0.003157  -0.000063
     7  H    0.561524  -0.002891   0.004212  -0.002491  -0.003178  -0.000062
     8  H   -0.002891   0.549233  -0.029325  -0.027353  -0.000070  -0.000001
     9  H    0.004212  -0.029325   0.550536  -0.027404  -0.000070  -0.000000
    10  H   -0.002491  -0.027353  -0.027404   0.534919  -0.000086   0.000001
    11  C   -0.003178  -0.000070  -0.000070  -0.000086   5.088771   0.348254
    12  C   -0.000062  -0.000001  -0.000000   0.000001   0.348254   5.072915
    13  C   -0.000001  -0.000000  -0.000000  -0.000000  -0.056658   0.338413
    14  H    0.000232  -0.000001   0.000013   0.000001   0.396415  -0.041803
    15  H    0.002370   0.000013  -0.000001   0.000001   0.396334  -0.040990
    16  H   -0.000004   0.000000  -0.000002   0.000000  -0.045374   0.397018
    17  H    0.000017  -0.000002   0.000000   0.000000  -0.043450   0.399332
    18  H   -0.000002   0.000000  -0.000000  -0.000000  -0.003863  -0.038100
    19  H    0.000000  -0.000000   0.000000  -0.000000  -0.003830  -0.039368
    20  H    0.000000  -0.000000  -0.000000   0.000000   0.004438  -0.036640
    21  C    0.000000  -0.000000   0.000000  -0.000000   0.000000   0.000007
    22  C   -0.000000  -0.000000  -0.000000   0.000000   0.000060  -0.001136
    23  C    0.000000   0.000000   0.000000  -0.000000   0.000052  -0.001390
    24  C   -0.000000  -0.000000   0.000000  -0.000000  -0.000000   0.000083
    25  C   -0.000000  -0.000000  -0.000000   0.000000  -0.000000  -0.000000
    26  C    0.000000   0.000000   0.000000  -0.000000  -0.000000  -0.000001
    27  H   -0.000000  -0.000000  -0.000000   0.000000   0.000000   0.000000
    28  H    0.000000   0.000000   0.000000  -0.000000  -0.000025   0.000050
    29  H   -0.000000  -0.000000  -0.000000   0.000000  -0.000012  -0.000103
    30  H   -0.000000  -0.000000  -0.000000   0.000000   0.000000   0.000000
    31  H    0.000000   0.000000   0.000000  -0.000000  -0.000000   0.000000
    32  N   -0.000000  -0.000000  -0.000000  -0.000000  -0.000000  -0.000003
    33  O   -0.000000  -0.000000  -0.000000   0.000000   0.000000  -0.000000
    34  O    0.000000  -0.000000  -0.000000   0.000000  -0.000000  -0.000001
              13         14         15         16         17         18
     1  C    0.004042  -0.041957  -0.041501  -0.003185  -0.003260  -0.000062
     2  C   -0.000082  -0.003215  -0.003199  -0.000064  -0.000067  -0.000001
     3  C    0.000001  -0.000052  -0.000052  -0.000001  -0.000000  -0.000000
     4  H   -0.000056  -0.002814   0.004486   0.002393   0.000249  -0.000001
     5  H   -0.000054   0.004469  -0.002804   0.000237   0.002453   0.000013
     6  H   -0.000001   0.002382   0.000234   0.000017  -0.000003   0.000000
     7  H   -0.000001   0.000232   0.002370  -0.000004   0.000017  -0.000002
     8  H   -0.000000  -0.000001   0.000013   0.000000  -0.000002   0.000000
     9  H   -0.000000   0.000013  -0.000001  -0.000002   0.000000  -0.000000
    10  H   -0.000000   0.000001   0.000001   0.000000   0.000000  -0.000000
    11  C   -0.056658   0.396415   0.396334  -0.045374  -0.043450  -0.003863
    12  C    0.338413  -0.041803  -0.040990   0.397018   0.399332  -0.038100
    13  C    5.106359  -0.002639  -0.002867  -0.041548  -0.038934   0.390631
    14  H   -0.002639   0.564407  -0.030891  -0.003103   0.004564   0.000146
    15  H   -0.002867  -0.030891   0.561902   0.004619  -0.002965   0.002528
    16  H   -0.041548  -0.003103   0.004619   0.585946  -0.033361   0.004337
    17  H   -0.038934   0.004564  -0.002965  -0.033361   0.563896  -0.002902
    18  H    0.390631   0.000146   0.002528   0.004337  -0.002902   0.543586
    19  H    0.392494   0.002627   0.000150  -0.003059   0.004180  -0.027974
    20  H    0.393277  -0.000058  -0.000066  -0.002815  -0.002483  -0.026351
    21  C    0.000006  -0.000000  -0.000000   0.000020   0.000002  -0.000000
    22  C   -0.000075  -0.000000  -0.000001  -0.001196   0.000193   0.000001
    23  C   -0.001323   0.000001  -0.000001  -0.000449   0.000038   0.000035
    24  C   -0.000260   0.000000   0.000000   0.000136  -0.000008   0.000003
    25  C    0.000005   0.000000   0.000000  -0.000004  -0.000000  -0.000000
    26  C    0.000002  -0.000000   0.000000  -0.000004   0.000000  -0.000000
    27  H    0.000000  -0.000000  -0.000000  -0.000002  -0.000000  -0.000000
    28  H   -0.000024   0.000000   0.000001   0.000802   0.000031   0.000000
    29  H   -0.000169   0.000003  -0.000000   0.000321   0.000009   0.000012
    30  H    0.000000  -0.000000   0.000000   0.000000  -0.000000  -0.000000
    31  H   -0.000000  -0.000000   0.000000   0.000000  -0.000000   0.000000
    32  N   -0.000003  -0.000000   0.000000  -0.000001   0.000000   0.000000
    33  O    0.000001  -0.000000  -0.000000  -0.000000   0.000000  -0.000000
    34  O   -0.000163  -0.000000   0.000000  -0.000003  -0.000000   0.000005
              19         20         21         22         23         24
     1  C   -0.000068  -0.000089  -0.000000  -0.000012   0.000000  -0.000000
     2  C   -0.000001   0.000001   0.000000   0.000000  -0.000000  -0.000000
     3  C   -0.000000  -0.000000   0.000000   0.000000   0.000000   0.000000
     4  H    0.000014   0.000001  -0.000000  -0.000020  -0.000003   0.000000
     5  H   -0.000001   0.000001  -0.000000  -0.000000   0.000000   0.000000
     6  H   -0.000002   0.000000  -0.000000  -0.000000   0.000000   0.000000
     7  H    0.000000   0.000000   0.000000  -0.000000   0.000000  -0.000000
     8  H   -0.000000  -0.000000  -0.000000  -0.000000   0.000000  -0.000000
     9  H    0.000000  -0.000000   0.000000  -0.000000   0.000000   0.000000
    10  H   -0.000000   0.000000  -0.000000   0.000000  -0.000000  -0.000000
    11  C   -0.003830   0.004438   0.000000   0.000060   0.000052  -0.000000
    12  C   -0.039368  -0.036640   0.000007  -0.001136  -0.001390   0.000083
    13  C    0.392494   0.393277   0.000006  -0.000075  -0.001323  -0.000260
    14  H    0.002627  -0.000058  -0.000000  -0.000000   0.000001   0.000000
    15  H    0.000150  -0.000066  -0.000000  -0.000001  -0.000001   0.000000
    16  H   -0.003059  -0.002815   0.000020  -0.001196  -0.000449   0.000136
    17  H    0.004180  -0.002483   0.000002   0.000193   0.000038  -0.000008
    18  H   -0.027974  -0.026351  -0.000000   0.000001   0.000035   0.000003
    19  H    0.538599  -0.027102   0.000000   0.000012  -0.000146  -0.000017
    20  H   -0.027102   0.532441  -0.000015   0.000177   0.001246   0.000437
    21  C    0.000000  -0.000015   4.875233   0.543252  -0.045008  -0.028585
    22  C    0.000012   0.000177   0.543252   4.935278   0.519145  -0.039141
    23  C   -0.000146   0.001246  -0.045008   0.519145   4.923178   0.549070
    24  C   -0.000017   0.000437  -0.028585  -0.039141   0.549070   4.822188
    25  C    0.000000  -0.000031  -0.045858  -0.030093  -0.053102   0.547934
    26  C   -0.000000  -0.000012   0.542053  -0.043862  -0.030001  -0.040606
    27  H    0.000000   0.000000   0.381423  -0.028034   0.002182   0.000217
    28  H    0.000000  -0.000001  -0.026999   0.382558  -0.028050   0.001525
    29  H    0.000379  -0.000591   0.001893  -0.024352   0.368312  -0.018903
    30  H    0.000000   0.000000   0.001929  -0.000064   0.002601  -0.019640
    31  H   -0.000000  -0.000000  -0.027707   0.002351   0.000197   0.001558
    32  N   -0.000001   0.000059   0.000009   0.001496  -0.044786   0.244012
    33  O    0.000000  -0.000015  -0.000004  -0.000028   0.003694  -0.088077
    34  O    0.000234   0.000708  -0.000005   0.000798   0.003384  -0.087469
              25         26         27         28         29         30
     1  C   -0.000000   0.000000  -0.000000   0.000032  -0.000001  -0.000000
     2  C    0.000000  -0.000000   0.000000  -0.000000   0.000000   0.000000
     3  C   -0.000000   0.000000  -0.000000   0.000000  -0.000000  -0.000000
     4  H   -0.000000   0.000000  -0.000000   0.000119  -0.000003  -0.000000
     5  H    0.000000  -0.000000   0.000000  -0.000001   0.000000   0.000000
     6  H    0.000000  -0.000000   0.000000   0.000000   0.000000   0.000000
     7  H   -0.000000   0.000000  -0.000000   0.000000  -0.000000  -0.000000
     8  H   -0.000000   0.000000  -0.000000   0.000000  -0.000000  -0.000000
     9  H   -0.000000   0.000000  -0.000000   0.000000  -0.000000  -0.000000
    10  H    0.000000  -0.000000   0.000000  -0.000000   0.000000   0.000000
    11  C   -0.000000  -0.000000   0.000000  -0.000025  -0.000012   0.000000
    12  C   -0.000000  -0.000001   0.000000   0.000050  -0.000103   0.000000
    13  C    0.000005   0.000002   0.000000  -0.000024  -0.000169   0.000000
    14  H    0.000000  -0.000000  -0.000000   0.000000   0.000003  -0.000000
    15  H    0.000000   0.000000  -0.000000   0.000001  -0.000000   0.000000
    16  H   -0.000004  -0.000004  -0.000002   0.000802   0.000321   0.000000
    17  H   -0.000000   0.000000  -0.000000   0.000031   0.000009  -0.000000
    18  H   -0.000000  -0.000000  -0.000000   0.000000   0.000012  -0.000000
    19  H    0.000000  -0.000000   0.000000   0.000000   0.000379   0.000000
    20  H   -0.000031  -0.000012   0.000000  -0.000001  -0.000591   0.000000
    21  C   -0.045858   0.542053   0.381423  -0.026999   0.001893   0.001929
    22  C   -0.030093  -0.043862  -0.028034   0.382558  -0.024352  -0.000064
    23  C   -0.053102  -0.030001   0.002182  -0.028050   0.368312   0.002601
    24  C    0.547934  -0.040606   0.000217   0.001525  -0.018903  -0.019640
    25  C    4.919673   0.523518   0.002177   0.000200   0.002537   0.368490
    26  C    0.523518   4.932764  -0.028047   0.002316  -0.000056  -0.024103
    27  H    0.002177  -0.028047   0.446921  -0.001169  -0.000070  -0.000071
    28  H    0.000200   0.002316  -0.001169   0.445765  -0.001233   0.000007
    29  H    0.002537  -0.000056  -0.000070  -0.001233   0.389483  -0.000075
    30  H    0.368490  -0.024103  -0.000071   0.000007  -0.000075   0.392840
    31  H   -0.027411   0.382626  -0.001205  -0.000093   0.000007  -0.001115
    32  N   -0.044447   0.001513   0.000002  -0.000049  -0.005302  -0.005391
    33  O    0.003983   0.000773   0.000000   0.000000   0.000043   0.009068
    34  O    0.003720  -0.000027   0.000000   0.000000   0.008541   0.000047
              31         32         33         34
     1  C    0.000000   0.000000  -0.000000   0.000000
     2  C   -0.000000  -0.000000   0.000000  -0.000000
     3  C   -0.000000   0.000000   0.000000  -0.000000
     4  H    0.000000  -0.000000   0.000000   0.000000
     5  H   -0.000000  -0.000000   0.000000  -0.000000
     6  H    0.000000  -0.000000   0.000000   0.000000
     7  H    0.000000  -0.000000  -0.000000   0.000000
     8  H    0.000000  -0.000000  -0.000000  -0.000000
     9  H    0.000000  -0.000000  -0.000000  -0.000000
    10  H   -0.000000  -0.000000   0.000000   0.000000
    11  C   -0.000000  -0.000000   0.000000  -0.000000
    12  C    0.000000  -0.000003  -0.000000  -0.000001
    13  C   -0.000000  -0.000003   0.000001  -0.000163
    14  H   -0.000000  -0.000000  -0.000000  -0.000000
    15  H    0.000000   0.000000  -0.000000   0.000000
    16  H    0.000000  -0.000001  -0.000000  -0.000003
    17  H   -0.000000   0.000000   0.000000  -0.000000
    18  H    0.000000   0.000000  -0.000000   0.000005
    19  H   -0.000000  -0.000001   0.000000   0.000234
    20  H   -0.000000   0.000059  -0.000015   0.000708
    21  C   -0.027707   0.000009  -0.000004  -0.000005
    22  C    0.002351   0.001496  -0.000028   0.000798
    23  C    0.000197  -0.044786   0.003694   0.003384
    24  C    0.001558   0.244012  -0.088077  -0.087469
    25  C   -0.027411  -0.044447   0.003983   0.003720
    26  C    0.382626   0.001513   0.000773  -0.000027
    27  H   -0.001205   0.000002   0.000000   0.000000
    28  H   -0.000093  -0.000049   0.000000   0.000000
    29  H    0.000007  -0.005302   0.000043   0.008541
    30  H   -0.001115  -0.005391   0.009068   0.000047
    31  H    0.447518  -0.000049  -0.000001   0.000000
    32  N   -0.000049   5.735748   0.314892   0.313782
    33  O   -0.000001   0.314892   8.303399  -0.087386
    34  O    0.000000   0.313782  -0.087386   8.304151
 Mulliken charges:
               1
     1  C   -0.297487
     2  C   -0.299864
     3  C   -0.475851
     4  H    0.143325
     5  H    0.149168
     6  H    0.153362
     7  H    0.153822
     8  H    0.154957
     9  H    0.153936
    10  H    0.161922
    11  C   -0.297939
    12  C   -0.301545
    13  C   -0.480374
    14  H    0.151273
    15  H    0.152702
    16  H    0.138327
    17  H    0.152472
    18  H    0.157958
    19  H    0.162878
    20  H    0.163483
    21  C   -0.171647
    22  C   -0.217309
    23  C   -0.168878
    24  C    0.155540
    25  C   -0.171290
    26  C   -0.218847
    27  H    0.225674
    28  H    0.224237
    29  H    0.279333
    30  H    0.275477
    31  H    0.223323
    32  N    0.488520
    33  O   -0.460345
    34  O   -0.460316
 Sum of Mulliken charges =  -0.00000
 Mulliken charges with hydrogens summed into heavy atoms:
               1
     1  C   -0.004994
     2  C    0.007321
     3  C   -0.005036
    11  C    0.006037
    12  C   -0.010747
    13  C    0.003945
    21  C    0.054028
    22  C    0.006928
    23  C    0.110455
    24  C    0.155540
    25  C    0.104187
    26  C    0.004477
    32  N    0.488520
    33  O   -0.460345
    34  O   -0.460316
 Electronic spatial extent (au):  <R**2>=           6350.1924
 Charge=             -0.0000 electrons
 Dipole moment (field-independent basis, Debye):
    X=              1.9249    Y=              4.7004    Z=              0.6926  Tot=              5.1263
 Quadrupole moment (field-independent basis, Debye-Ang):
   XX=           -102.4201   YY=            -94.2192   ZZ=            -93.9361
   XY=            -15.9093   XZ=             -3.8081   YZ=             -0.1036
 Traceless Quadrupole moment (field-independent basis, Debye-Ang):
   XX=             -5.5617   YY=              2.6393   ZZ=              2.9224
   XY=            -15.9093   XZ=             -3.8081   YZ=             -0.1036
 Octapole moment (field-independent basis, Debye-Ang**2):
  XXX=              6.1940  YYY=             27.5690  ZZZ=             -3.5543  XYY=             -1.3146
  XXY=             50.5257  XXZ=             17.5533  XZZ=             -5.1555  YZZ=             -7.1769
  YYZ=             10.9863  XYZ=             -3.4229
 Hexadecapole moment (field-independent basis, Debye-Ang**3):
 XXXX=          -7244.2719 YYYY=          -1253.2652 ZZZZ=           -314.3542 XXXY=           -246.3075
 XXXZ=            -37.3774 YYYX=            -54.4978 YYYZ=             21.9371 ZZZX=             12.9100
 ZZZY=              8.5175 XXYY=          -1449.4711 XXZZ=          -1205.1574 YYZZ=           -275.3625
 XXYZ=             30.1390 YYXZ=            -34.5952 ZZXY=             16.9740
 N-N= 9.268864474410D+02 E-N=-3.416750294032D+03  KE= 6.679747678005D+02
 Leave Link  601 at Thu May  6 01:15:16 2021, MaxMem=   524288000 cpu:               0.6 elap:               0.5
 (Enter /opt/gaussian/g16_legacy/l9999.exe)
 1\1\GINC-TRUENO90\SP\RMP2-FC\6-31G(d)\C12H19N1O2\JRAMOS\06-May-2021\0\
 \#p 6-31g* mp2\\Input file generated by CHIRIPA (05-May-2021 14:53:18)
 \\0,1\C,0,-0.666,-0.374,0.\C,0,-1.882,0.553,0.\C,0,-3.207,-0.21,0.\H,0
 ,-0.713,-1.03,-0.88\H,0,-0.713,-1.029,0.881\H,0,-1.832,1.207,-0.88\H,0
 ,-1.832,1.207,0.88\H,0,-3.283,-0.85,0.885\H,0,-3.283,-0.85,-0.885\H,0,
 -4.063,0.472,0.\C,0,0.666,0.374,0.\C,0,1.882,-0.553,0.\C,0,3.207,0.21,
 0.\H,0,0.713,1.029,-0.881\H,0,0.713,1.03,0.88\H,0,1.832,-1.207,-0.88\H
 ,0,1.832,-1.207,0.88\H,0,3.283,0.85,0.885\H,0,3.283,0.85,-0.885\H,0,4.
 063,-0.472,0.\C,0,3.60036,-4.859917,-1.48498\C,0,3.126977,-3.598249,-1
 .85998\C,0,4.019818,-2.572629,-2.184767\C,0,5.385662,-2.844697,-2.1236
 28\C,0,5.888213,-4.091237,-1.753668\C,0,4.97704,-5.101957,-1.433112\H,
 0,2.899659,-5.650856,-1.234321\H,0,2.058364,-3.407418,-1.901137\H,0,3.
 680613,-1.586632,-2.478311\H,0,6.959088,-4.251335,-1.721861\H,0,5.3475
 34,-6.080814,-1.14222\N,0,6.340576,-1.766805,-2.465226\O,0,7.539135,-2
 .031936,-2.403579\O,0,5.872398,-0.677233,-2.788149\\Version=EM64L-G16R
 evA.03\State=1-A\HF=-669.5336972\MP2=-671.6279034\RMSD=6.813e-09\PG=C0
 1 [X(C12H19N1O2)]\\@


 You never know when you're making a memory.
                        -- Rickie Lee Jones
 Job cpu time:       0 days  0 hours  4 minutes  7.3 seconds.
 Elapsed time:       0 days  0 hours  2 minutes  8.6 seconds.
 File lengths (MBytes):  RWF=     43 Int=      0 D2E=      0 Chk=      6 Scr=      1
 Normal termination of Gaussian 16 at Thu May  6 01:15:16 2021.
